<?xml version="1.0" ?>
<VTKFile byte_order="LittleEndian" type="UnstructuredGrid" version="0.1">
<UnstructuredGrid>
<Piece NumberOfCells="1404" NumberOfPoints="1500">
<Points>
<DataArray NumberOfComponents="3" format="ascii" type="Float32">0.0149999997 0.0299999993 0.0 0.0149999997 0.0401869528 0.0 0.00973947905 0.0450999998 0.0 0.0 0.0450999998 0.0 0.0 0.0299999993 0.0 0.0149999997 0.0500130467 0.0 0.0149999997 0.0599999987 0.0 0.0 0.0599999987 0.0 0.0299999993 0.0299999993 0.0 0.0299999993 0.0450999998 0.0 0.0195885208 0.0450999998 0.0 0.0299999993 0.0599999987 0.0 0.0 0.0 0.0 0.0299999993 0.0 0.0 0.0299999993 0.0900000036 0.0 0.0 0.0900000036 0.0 0.00187499996 0.0299999993 0.0 0.00374999992 0.0299999993 0.0 0.00562500022 0.0299999993 0.0 0.00749999983 0.0299999993 0.0 0.00937500037 0.0299999993 0.0 0.0112500004 0.0299999993 0.0 0.0131249996 0.0299999993 0.0 0.0149999997 0.0309388097 0.0 0.0149999997 0.0315993913 0.0 0.0149999997 0.0322599746 0.0 0.0149999997 0.0329205543 0.0 0.0149999997 0.0335811377 0.0 0.0149999997 0.0342417173 0.0 0.0149999997 0.0349023007 0.0 0.0149999997 0.0355628803 0.0 0.0149999997 0.0362234637 0.0 0.0149999997 0.0368840471 0.0 0.0149999997 0.0375446267 0.0 0.0149999997 0.0382052101 0.0 0.0149999997 0.0388657898 0.0 0.0149999997 0.0395263731 0.0 0.0145518444 0.0401767567 0.0 0.0141046178 0.0402073525 0.0 0.0136620263 0.0402784906 0.0 0.0132277375 0.0403895788 0.0 0.0128053501 0.0405397005 0.0 0.012398364 0.0407276079 0.0 0.0120101506 0.0409517474 0.0 0.0116439275 0.0412102602 0.0 0.0113027301 0.0415010042 0.0 0.0109893847 0.0418215692 0.0 0.0107064871 0.042169299 0.0 0.0104563832 0.0425413139 0.0 0.0102411434 0.0429345332 0.0 0.010062553 0.0433456935 0.0 0.00992209092 0.0437713899 0.0 0.00982092042 0.0442080945 0.0 0.00975988153 0.0446521938 0.0 0.00910791382 0.0450999998 0.0 0.00847634859 0.0450999998 0.0 0.0078447843 0.0450999998 0.0 0.00721321953 0.0450999998 0.0 0.00658165431 0.0450999998 0.0 0.00595008954 0.0450999998 0.0 0.00531852478 0.0450999998 0.0 0.00468696002 0.0450999998 0.0 0.00405539526 0.0450999998 0.0 0.00342383026 0.0450999998 0.0 0.0027922655 0.0450999998 0.0 0.00216070074 0.0450999998 0.0 0.00152913586 0.0450999998 0.0 0.000897571037 0.0450999998 0.0 0.0 0.0438416675 0.0 0.0 0.0425833352 0.0 0.0 0.0413249992 0.0 0.0 0.0400666669 0.0 0.0 0.0388083346 0.0 0.0 0.0375499986 0.0 0.0 0.0362916663 0.0 0.0 0.035033334 0.0 0.0 0.0337750018 0.0 0.0 0.0325166658 0.0 0.0 0.0312583335 0.0 0.00975988153 0.0455478057 0.0 0.00982092042 0.045991905 0.0 0.00992209092 0.0464286096 0.0 0.010062553 0.046854306 0.0 0.0102411434 0.0472654663 0.0 0.0104563832 0.0476586856 0.0 0.0107064871 0.0480307005 0.0 0.0109893847 0.0483784303 0.0 0.0113027301 0.0486989953 0.0 0.0116439275 0.0489897393 0.0 0.0120101506 0.0492482521 0.0 0.012398364 0.0494723916 0.0 0.0128053501 0.049660299 0.0 0.0132277375 0.0498104207 0.0 0.0136620263 0.0499215089 0.0 0.0141046178 0.049992647 0.0 0.0145518444 0.0500232428 0.0 0.0149999997 0.0506606586 0.0 0.0149999997 0.0513082705 0.0 0.0149999997 0.0519558825 0.0 0.0149999997 0.0526034944 0.0 0.0149999997 0.05325111 0.0 0.0149999997 0.0538987219 0.0 0.0149999997 0.0545463338 0.0 0.0149999997 0.0551939458 0.0 0.0149999997 0.0558415577 0.0 0.0149999997 0.0564891733 0.0 0.0149999997 0.0571367852 0.0 0.0149999997 0.0577843972 0.0 0.0149999997 0.0584320091 0.0 0.0149999997 0.059079621 0.0 0.0131249996 0.0599999987 0.0 0.0112500004 0.0599999987 0.0 0.00937500037 0.0599999987 0.0 0.00749999983 0.0599999987 0.0 0.00562500022 0.0599999987 0.0 0.00374999992 0.0599999987 0.0 0.00187499996 0.0599999987 0.0 0.0 0.0587583333 0.0 0.0 0.057516668 0.0 0.0 0.0562749989 0.0 0.0 0.0550333336 0.0 0.0 0.0537916683 0.0 0.0 0.0525499992 0.0 0.0 0.0513083339 0.0 0.0 0.0500666648 0.0 0.0 0.0488249995 0.0 0.0 0.0475833341 0.0 0.0 0.0463416651 0.0 0.0195713751 0.0446894132 0.0 0.0195200555 0.0442816839 0.0 0.0194349196 0.0438796543 0.0 0.0193165597 0.0434861258 0.0 0.0191658027 0.0431038328 0.0 0.0189836938 0.0427354388 0.0 0.0187715068 0.0423835143 0.0 0.0185307153 0.0420505032 0.0 0.0182629973 0.0417387299 0.0 0.0179702155 0.0414503627 0.0 0.0176544115 0.041187413 0.0 0.0173177831 0.0409517065 0.0 0.0169626754 0.0407448858 0.0 0.0165915582 0.0405683964 0.0 0.0162070207 0.040423464 0.0 0.0158117376 0.0403110944 0.0 0.0154084601 0.0402320772 0.0 0.0168750007 0.0299999993 0.0 0.0187500007 0.0299999993 0.0 0.0206250008 0.0299999993 0.0 0.0225000009 0.0299999993 0.0 0.0243749991 0.0299999993 0.0 0.0262499992 0.0299999993 0.0 0.0281249993 0.0299999993 0.0 0.0299999993 0.0312583335 0.0 0.0299999993 0.0325166658 0.0 0.0299999993 0.0337750018 0.0 0.0299999993 0.035033334 0.0 0.0299999993 0.0362916663 0.0 0.0299999993 0.0375499986 0.0 0.0299999993 0.0388083346 0.0 0.0299999993 0.0400666669 0.0 0.0299999993 0.0413249992 0.0 0.0299999993 0.0425833352 0.0 0.0299999993 0.0438416675 0.0 0.0290404987 0.0450999998 0.0 0.0283653568 0.0450999998 0.0 0.0276902169 0.0450999998 0.0 0.0270150751 0.0450999998 0.0 0.0263399333 0.0450999998 0.0 0.0256647933 0.0450999998 0.0 0.0249896515 0.0450999998 0.0 0.0243145097 0.0450999998 0.0 0.0236393698 0.0450999998 0.0 0.0229642279 0.0450999998 0.0 0.0222890861 0.0450999998 0.0 0.0216139443 0.0450999998 0.0 0.0209388044 0.0450999998 0.0 0.0202636626 0.0450999998 0.0 0.0281249993 0.0599999987 0.0 0.0262499992 0.0599999987 0.0 0.0243749991 0.0599999987 0.0 0.0225000009 0.0599999987 0.0 0.0206250008 0.0599999987 0.0 0.0187500007 0.0599999987 0.0 0.0168750007 0.0599999987 0.0 0.0154084601 0.049967926 0.0 0.0158117376 0.0498889051 0.0 0.0162070207 0.0497765355 0.0 0.0165915582 0.0496316031 0.0 0.0169626754 0.0494551137 0.0 0.0173177831 0.049248293 0.0 0.0176544115 0.0490125902 0.0 0.0179702155 0.0487496369 0.0 0.0182629973 0.0484612696 0.0 0.0185307153 0.0481494963 0.0 0.0187715068 0.0478164889 0.0 0.0189836938 0.0474645607 0.0 0.0191658027 0.0470961705 0.0 0.0193165597 0.0467138775 0.0 0.0194349196 0.0463203453 0.0 0.0195200555 0.0459183156 0.0 0.0195713751 0.0455105864 0.0 0.0299999993 0.0463416651 0.0 0.0299999993 0.0475833341 0.0 0.0299999993 0.0488249995 0.0 0.0299999993 0.0500666648 0.0 0.0299999993 0.0513083339 0.0 0.0299999993 0.0525499992 0.0 0.0299999993 0.0537916683 0.0 0.0299999993 0.0550333336 0.0 0.0299999993 0.0562749989 0.0 0.0299999993 0.057516668 0.0 0.0299999993 0.0587583333 0.0 0.0 0.0270000007 0.0 0.0 0.0240000002 0.0 0.0 0.0209999997 0.0 0.0 0.0179999992 0.0 0.0 0.0149999997 0.0 0.0 0.0120000001 0.0 0.0 0.00899999961 0.0 0.0 0.00600000005 0.0 0.0 0.00300000003 0.0 0.00187499996 0.0 0.0 0.00374999992 0.0 0.0 0.00562500022 0.0 0.0 0.00749999983 0.0 0.0 0.00937500037 0.0 0.0 0.0112500004 0.0 0.0 0.0131249996 0.0 0.0 0.0149999997 0.0 0.0 0.0168750007 0.0 0.0 0.0187500007 0.0 0.0 0.0206250008 0.0 0.0 0.0225000009 0.0 0.0 0.0243749991 0.0 0.0 0.0262499992 0.0 0.0 0.0281249993 0.0 0.0 0.0299999993 0.00300000003 0.0 0.0299999993 0.00600000005 0.0 0.0299999993 0.00899999961 0.0 0.0299999993 0.0120000001 0.0 0.0299999993 0.0149999997 0.0 0.0299999993 0.0179999992 0.0 0.0299999993 0.0209999997 0.0 0.0299999993 0.0240000002 0.0 0.0299999993 0.0270000007 0.0 0.0299999993 0.063000001 0.0 0.0299999993 0.0659999996 0.0 0.0299999993 0.0689999983 0.0 0.0299999993 0.0719999969 0.0 0.0299999993 0.075000003 0.0 0.0299999993 0.0780000016 0.0 0.0299999993 0.0810000002 0.0 0.0299999993 0.0839999989 0.0 0.0299999993 0.0869999975 0.0 0.0281249993 0.0900000036 0.0 0.0262499992 0.0900000036 0.0 0.0243749991 0.0900000036 0.0 0.0225000009 0.0900000036 0.0 0.0206250008 0.0900000036 0.0 0.0187500007 0.0900000036 0.0 0.0168750007 0.0900000036 0.0 0.0149999997 0.0900000036 0.0 0.0131249996 0.0900000036 0.0 0.0112500004 0.0900000036 0.0 0.00937500037 0.0900000036 0.0 0.00749999983 0.0900000036 0.0 0.00562500022 0.0900000036 0.0 0.00374999992 0.0900000036 0.0 0.00187499996 0.0900000036 0.0 0.0 0.0869999975 0.0 0.0 0.0839999989 0.0 0.0 0.0810000002 0.0 0.0 0.0780000016 0.0 0.0 0.075000003 0.0 0.0 0.0719999969 0.0 0.0 0.0689999983 0.0 0.0 0.0659999996 0.0 0.0 0.063000001 0.0 0.00240605418 0.0317476094 0.0 0.0132285897 0.0308372527 0.0 0.0114639541 0.0308285281 0.0 0.00970989279 0.0308664478 0.0 0.00796741433 0.030946292 0.0 0.00622726884 0.0310834199 0.0 0.00444168784 0.0313186944 0.0 0.0115238708 0.0404538177 0.0 0.0110589247 0.0399643853 0.0 0.0105802957 0.0394543298 0.0 0.0100896806 0.0389274582 0.0 0.00958756451 0.0383866653 0.0 0.00907252356 0.0378334895 0.0 0.00854044221 0.0372676216 0.0 0.00798357651 0.0366861634 0.0 0.00738931261 0.0360825956 0.0 0.00673822826 0.0354451761 0.0 0.00600026548 0.0347540006 0.0 0.00512524834 0.0339741185 0.0 0.00401390065 0.0330347866 0.0 0.000793838175 0.0438955426 0.0 0.000772442494 0.0426918976 0.0 0.000783006602 0.0414899141 0.0 0.000811753387 0.0402907245 0.0 0.000856733182 0.0390956625 0.0 0.000921554572 0.037906155 0.0 0.00101479655 0.0367233306 0.0 0.00115271518 0.0355465077 0.0 0.00136729016 0.0343677737 0.0 0.00172855402 0.0331514254 0.0 0.0133339632 0.0315873995 0.0 0.0134397261 0.0323022977 0.0 0.0135442559 0.032998085 0.0 0.0136464294 0.0336812399 0.0 0.013745822 0.0343553573 0.0 0.013842525 0.0350228548 0.0 0.0139368745 0.0356853306 0.0 0.0140292263 0.0363436677 0.0 0.0141198216 0.0369979888 0.0 0.0142087657 0.0376475193 0.0 0.0142960874 0.0382902175 0.0 0.0143820234 0.0389216021 0.0 0.0144678745 0.0395311117 0.0 0.0116815548 0.0316202343 0.0 0.011899055 0.0323765688 0.0 0.0121123437 0.033103589 0.0 0.0123189483 0.0338073969 0.0 0.0125182495 0.0344934613 0.0 0.0127108386 0.0351662561 0.0 0.0128977867 0.0358290039 0.0 0.0130801173 0.0364835784 0.0 0.0132585336 0.0371304527 0.0 0.0134333326 0.0377685912 0.0 0.0136044715 0.0383952036 0.0 0.0137717454 0.0390052013 0.0 0.0139350798 0.0395906046 0.0 0.0100520272 0.0317044854 0.0 0.010392216 0.0325013697 0.0 0.0107216369 0.0332574546 0.0 0.01103618 0.0339790136 0.0 0.0113357538 0.0346737355 0.0 0.0116223767 0.0353484601 0.0 0.011898635 0.0360082686 0.0 0.0121667851 0.0366562307 0.0 0.0124283545 0.03
[...]
<PointData>
<DataArray Name="displ" NumberOfComponents="3" format="ascii" type="Float32">-4.561599239214e-05 0.0005564043914426911 0.0 -7.01014178073284e-05 0.000570933104155765 0.0 -1.3360505829831584e-06 0.0006797908334420542 0.0 -3.522047349324574e-06 0.0007143010193417024 0.0 -2.8725463688575214e-05 0.0005952007012902741 0.0 -6.676595089213133e-05 0.0008656701993659024 0.0 -6.91425876054008e-05 0.0008836089468806761 0.0 -5.8528634523078495e-05 0.00082959707625398 0.0 -6.819028251670013e-05 0.0006201405927608945 0.0 -0.00011466594660627125 0.000733502823476558 0.0 -0.00014193886530051148 0.0007080567988766177 0.0 -8.763005765192585e-05 0.0008449640937327438 0.0 -2.707195364949264e-06 0.00041218553563131976 0.0 -3.879425634771006e-05 0.0004281208177571135 0.0 -0.00010087783366489141 0.00105081907269103 0.0 -6.503262262961224e-05 0.0010286214905884904 0.0 -2.937383095585549e-05 0.0005935244966526863 0.0 -3.186555205340109e-05 0.0005914321588702664 0.0 -3.6344127036090614e-05 0.0005859690820310456 0.0 -4.052703979869746e-05 0.0005791396550734773 0.0 -4.1308368832899984e-05 0.0005700316109850018 0.0 -4.4273701123639196e-05 0.0005602178760265861 0.0 -4.83737323190385e-05 0.000555909023375136 0.0 -4.914798284250441e-05 0.0005598240520226972 0.0 -4.88037160914059e-05 0.0005588959399676074 0.0 -4.978563027026371e-05 0.0005620413719234242 0.0 -5.024207871481705e-05 0.0005636261486654115 0.0 -5.049756039225489e-05 0.0005679927406398003 0.0 -5.301436113618542e-05 0.0005692430298771874 0.0 -4.97484288375625e-05 0.0005672968236524062 0.0 -5.15377693165657e-05 0.0005680120743623426 0.0 -5.246323653283003e-05 0.00057006790904664 0.0 -4.8655713612913655e-05 0.0005680134913288996 0.0 -5.4588188983833214e-05 0.0005674744909157601 0.0 -5.170348597615299e-05 0.0005740447170686731 0.0 -5.0975094739015636e-05 0.0005728640448277126 0.0 -5.0894473989995126e-05 0.0005659562617617213 0.0 -5.6270687717653483e-05 0.0005695763398719314 0.0 -6.155679794196648e-05 0.0005732018822040784 0.0 -4.795797165020918e-05 0.0005807995698413163 0.0 -3.284950285337635e-05 0.0005668968490592824 0.0 -3.849408411151939e-05 0.0005745960148363381 0.0 -2.3635957530655656e-05 0.000584060199566265 0.0 -2.7832318531345276e-05 0.0005821295440818319 0.0 -1.531170078957322e-05 0.0005742886614541714 0.0 -1.3715768456478348e-05 0.0005970555118232052 0.0 -1.550518790207953e-05 0.000599819563817738 0.0 -1.029818248510923e-05 0.0006120346740208462 0.0 -5.734278811365301e-06 0.0006113635414075093 0.0 -8.928327976931978e-06 0.0006211426601387684 0.0 -1.7615745688880198e-05 0.0006271497182786055 0.0 2.6089256837842994e-06 0.0006067613831284231 0.0 -1.3889335723007539e-05 0.0006605937010528401 0.0 -1.278222349515887e-05 0.0007091100562210521 0.0 -1.8076593804950544e-05 0.0007158203449409363 0.0 -8.056842932259754e-06 0.0007169593621518039 0.0 -1.3506997121547002e-05 0.0007182639304566531 0.0 -5.710068197615078e-06 0.0007134434069942646 0.0 -1.0355233216739584e-05 0.0007179273370097998 0.0 -1.2357960832292929e-05 0.0007147996906028129 0.0 -1.266107710729121e-05 0.0007141105991981498 0.0 -5.625299014081551e-06 0.0007137639134392157 0.0 -9.368147132243965e-06 0.0007126735737196507 0.0 -8.173908617127438e-06 0.0007100642532998035 0.0 -7.863287033330827e-06 0.0007139112961569765 0.0 -5.956053525554788e-06 0.0007100665553659167 0.0 -4.795189260688619e-06 0.0007154267746638406 0.0 -5.9358189407418845e-06 0.0007094193567673776 0.0 -3.799246687184102e-06 0.0007049393288234545 0.0 -6.907814472184042e-06 0.0006970679098631742 0.0 -4.1059006296222e-06 0.0006851041423269895 0.0 -1.307764002380441e-05 0.0006776313904590001 0.0 -1.9207437442043472e-05 0.0006701541081541539 0.0 -2.5982687746654405e-05 0.0006563406667575002 0.0 -2.4194923877944202e-05 0.0006493835772711037 0.0 -3.0258976400193798e-05 0.0006347665208817582 0.0 -2.7786138560870048e-05 0.00062489668746548 0.0 -2.6945143241629967e-05 0.0006156239585252271 0.0 -3.0417673558544806e-05 0.0006044828306219804 0.0 4.1022855035896606e-05 0.0008244839256220476 0.0 1.4632599050755353e-05 0.000851232079051384 0.0 5.601913358305108e-06 0.000780385935315622 0.0 1.4616778696201599e-05 0.0008646808585046137 0.0 -1.0735021090407562e-05 0.0008146651226102658 0.0 1.5214164742256091e-06 0.0008243305251456269 0.0 -2.5555548685412208e-05 0.00082175218087603 0.0 -2.081512159940069e-05 0.0008344745860005784 0.0 -2.8096852694158805e-05 0.0008429968128861134 0.0 -2.5262515905415413e-05 0.0008512088504352771 0.0 -4.0511495782737766e-05 0.0008438823096069186 0.0 -3.282087395876323e-05 0.0008562129386016971 0.0 -3.8684915467116275e-05 0.0008568255482300032 0.0 -5.5944567771156464e-05 0.0008691494952346982 0.0 -4.331432335932052e-05 0.0008634611221221538 0.0 -6.391613231930691e-05 0.0008763184926303535 0.0 -5.054627042234962e-05 0.0008662076777492052 0.0 -6.799004304487712e-05 0.0008770716014096598 0.0 -6.373906656557485e-05 0.0008681557178476073 0.0 -6.71589740528674e-05 0.0008727275921729567 0.0 -6.470347884373118e-05 0.0008705137114429116 0.0 -6.52788790075689e-05 0.0008700363286477388 0.0 -6.980585268030583e-05 0.0008687147544017469 0.0 -6.596165245246147e-05 0.0008734465940680253 0.0 -6.619979190235602e-05 0.0008744344567480681 0.0 -6.699090897620954e-05 0.0008731452281314722 0.0 -6.942938393989624e-05 0.0008777589396325933 0.0 -7.104160957921496e-05 0.0008804571520050767 0.0 -6.70214452265632e-05 0.000875964406166839 0.0 -7.05200685006378e-05 0.0008823872665120754 0.0 -6.871478681875688e-05 0.0008864949744513656 0.0 -7.03231014810708e-05 0.0008816904193293223 0.0 -6.871438694803963e-05 0.0008766985283413295 0.0 -7.00463479317698e-05 0.0008632842197471773 0.0 -6.600905805541056e-05 0.0008520683973575537 0.0 -6.442378868621905e-05 0.0008420815270620452 0.0 -6.33341665556448e-05 0.0008372247168771134 0.0 -5.761938765009787e-05 0.0008302447031193931 0.0 -5.519510374586476e-05 0.0008157407903346597 0.0 -4.925852488861303e-05 0.0008110029884387794 0.0 -5.388766004837723e-05 0.000795029586772241 0.0 -4.98115707531829e-05 0.0007879414212401594 0.0 -4.4687582072488e-05 0.0007739174758163994 0.0 -3.369565856902623e-05 0.0007663982613864573 0.0 -3.1969810075904534e-05 0.0007557075003404841 0.0 -2.124200984715212e-05 0.0007434947664012306 0.0 -1.4966093556235904e-05 0.0007333290557517505 0.0 -1.1018588508530696e-05 0.0007261328273795619 0.0 -5.424005167655976e-06 0.000723162323861854 0.0 -0.00011291581257664285 0.0007305693611328263 0.0 -7.635452451689556e-05 0.0006937028791788928 0.0 -0.00012116396253364073 0.0006533544639277935 0.0 -8.313734309379937e-05 0.0006719797657438383 0.0 -0.0001065026469116386 0.0006392475231441624 0.0 -0.0001131260216429831 0.0006271459879415744 0.0 -0.00010076067719251051 0.0006138271914642362 0.0 -9.633755827496739e-05 0.0006200389534307874 0.0 -9.463935490059456e-05 0.000597537969354192 0.0 -9.038360890204604e-05 0.0006060988161750748 0.0 -8.784829123904218e-05 0.0005998912960416565 0.0 -8.205792439367004e-05 0.0005909782120548452 0.0 -7.726036942833492e-05 0.0005827860386149812 0.0 -7.436017942260741e-05 0.0005828927545204094 0.0 -6.782466118937427e-05 0.0005747963847368698 0.0 -6.615568940355174e-05 0.0005742765402002243 0.0 -5.676814005623417e-05 0.0005684481426215073 0.0 -5.0195550684292196e-05 0.0005630419741511382 0.0 -5.0929705823958606e-05 0.0005713496718408028 0.0 -5.28721949781304e-05 0.0005864430711792379 0.0 -5.619434930150125e-05 0.0005978075007008895 0.0 -5.926850170760872e-05 0.0006068567645494585 0.0 -6.151089483313463e-05 0.0006127449911059804 0.0 -6.340724697889338e-05 0.0006188595811154098 0.0 -6.778231512066328e-05 0.0006275101980198971 0.0 -7.12369350068391e-05 0.0006431614442200576 0.0 -7.223298362778019e-05 0.000645560230061004 0.0 -7.59736235052086e-05 0.000663594798567851 0.0 -7.95122022964975e-05 0.0006738605496306849 0.0 -8.397181441970102e-05 0.0006849353566492326 0.0 -8.661960558070089e-05 0.0006924091603726483 0.0 -9.679215642883876e-05 0.0007079755617023326 0.0 -0.00010198174525869376 0.0007042555780022482 0.0 -0.00010781571215055192 0.0007226455152326723 0.0 -0.00011312645760342579 0.0007237793949221565 0.0 -0.00011138554171158483 0.0007364600536783919 0.0 -0.00011299360548024482 0.0007350696295531467 0.0 -0.0001096076199094118 0.0007304746362973425 0.0 -0.00010975277217540508 0.0007268147531508819 0.0 -0.00010907936612371432 0.0007320935575037184 0.0 -0.00010930640002990674 0.0007286470267400597 0.0 -0.00011098948150877257 0.0007295498446925084 0.0 -0.00010605473799616209 0.000730638155333717 0.0 -0.00010567546980144907 0.00072356301671999 0.0 -0.00010235838735783892 0.0007309020692709746 0.0 -0.00010831336449140981 0.0007222652258256191 0.0 -0.00010678741451871776 0.0007289153646278085 0.0 -0.00010602004688296815 0.0007205365062198418 0.0 -9.048752905634809e-05 0.0007270350911196932 0.0 -8.345111647675632e-05 0.0008437385736722332 0.0 -8.04975900277011e-05 0.0008457489479662006 0.0 -7.922543439263986e-05 0.0008484470716992328 0.0 -7.581452975837577e-05 0.0008541606923273854 0.0 -7.413661760469437e-05 0.0008615991520520172 0.0 -7.171011095680271e-05 0.0008730396741646617 0.0 -7.021725489368428e-05 0.0008795837415707966 0.0 -7.4209912205154e-05 0.0008770591662559453 0.0 -7.03300194734774e-05 0.0008633041921679512 0.0 -7.700496310956754e-05 0.0008700829463156439 0.0 -7.990590783434505e-05 0.0008608702585003504 0.0 -9.548771546958064e-05 0.000862116762498139 0.0 -9.187284147978458e-05 0.0008508265986785893 0.0 -8.74999810981239e-05 0.0008495232519837693 0.0 -9.561485688006711e-05 0.000844733684128374 0.0 -0.00010410274448907599 0.0008358645463593294 0.0 -9.784422816033837e-05 0.00082760860923645 0.0 -0.00010501572612568585 0.0008180233041075443 0.0 -0.0001077783870455202 0.0008110046048407193 0.0 -0.00010576103055163692 0.0007994971214450599 0.0 -0.00011245387637643606 0.0007926141395121391 0.0 -9.666264122215551e-05 0.0007522693343723248 0.0 -9.218647855158471e-05 0.0007460508089891244 0.0 -0.00011251136348479773 0.0007231504759912973 0.0 -0.00011334018341861375 0.0007388653110940373 0.0 -0.00011358237049554288 0.0007529361706513148 0.0 -0.00010673395820908656 0.0007546722983799155 0.0 -0.00010325579735418683 0.000773520341844071 0.0 -9.882988093506654e-05 0.0007689274506265845 0.0 -9.396189629679877e-05 0.0007833400239637509 0.0 -9.001925252709744e-05 0.0007895865732972296 0.0 -8.742575143915905e-05 0.0008073420091516892 0.0 -9.083794198740011e-05 0.0008155724837359544 0.0 -8.552133133101748e-05 0.0008239102684242961 0.0 -8.678231693322266e-05 0.0008340954027502121 0.0 -2.659600387882273e-05 0.000571002002963052 0.0 -2.251753815847511e-05 0.0005510730467673204 0.0 -1.674375302518981e-05 0.0005298620727830203 0.0 -1.3904396676250172e-05 0.000513219836325567 0.0 -1.0848295548846649e-05 0.0004923671292407054 0.0 -1.0345119845673692e-05 0.0004763876100254839 0.0 -8.281972062493266e-06 0.0004587937358679108 0.0 -7.326094747280929e-06 0.0004441297988000872 0.0 -3.977874911726235e-06 0.00042615601112242656 0.0 -3.7203528693753686e-06 0.00041449861207518737 0.0 -6.544723639378375e-06 0.0004134743114923626 0.0 -9.613291258602901e-06 0.00041615796113779057 0.0 -1.2554855222068214e-05 0.0004137196621122512 0.0 -1.4124536093271733e-05 0.0004136142752262663 0.0 -1.5865006286129005e-05 0.00041277334260418234 0.0 -1.8359405716740445e-05 0.00041366869365766794 0.0 -2.142453420921955e-05 0.0004135934920330073 0.0 -2.1874100565602027e-05 0.00041382444720448826 0.0 -2.591468978942376e-05 0.00041492488792216093 0.0 -2.6860598960928856e-05 0.00041537540209528795 0.0 -2.650028079661339e-05 0.00041910226343737654 0.0 -3.1443152908290586e-05 0.00042072324773224614 0.0 -3.3430816081758936e-05 0.00042533444362620704 0.0 -2.9969954779717125e-05 0.00042607517311376474 0.0 -3.758981341655393e-05 0.000443275074220975 0.0 -4.03604755735135e-05 0.0004614323988114527 0.0 -4.1524031563180344e-05 0.0004755865780046533 0.0 -4.3116806935758595e-05 0.0004970412282875037 0.0 -4.466798951408244e-05 0.0005125283312804012 0.0 -5.045915000643104e-05 0.0005372620127101029 0.0 -5.572371783550934e-05 0.0005534688203985826 0.0 -6.0491447911435305e-05 0.0005757395513967179 0.0 -6.387668360715281e-05 0.0005963088996291389 0.0 -8.514070084461422e-05 0.0008680194952481099 0.0 -8.860873615592828e-05 0.0008897499788596353 0.0 -8.743547333203786e-05 0.0009011291325205726 0.0 -9.082988242344799e-05 0.0009301126316846587 0.0 -8.989999316763388e-05 0.0009451493924623585 0.0 -9.432722439832942e-05 0.0009641148374390171 0.0 -9.454068479740177e-05 0.0009828203762207116 0.0 -9.657316475804819e-05 0.0010050767961362346 0.0 -0.00010030720570544217 0.0010226660084529497 0.0 -0.00010238360953958886 0.0010452785340501177 0.0 -9.755419876785852e-05 0.0010449177410154047 0.0 -9.628932824850384e-05 0.0010458306007533216 0.0 -9.321357212389057e-05 0.0010439294638140723 0.0 -9.113871598989624e-05 0.0010430377254550803 0.0 -8.722849785700355e-05 0.0010414836536839034 0.0 -8.733720032986528e-05 0.0010410877175198768 0.0 -8.256715143004583e-05 0.0010388642523080603 0.0 -7.896081962400495e-05 0.0010381131256466934 0.0 -7.82727607819023e-05 0.0010362904593613042 0.0 -7.617618234093113e-05 0.0010352208171467898 0.0 -7.251412556749479e-05 0.0010322268933427334 0.0 -7.325440929366316e-05 0.0010325585384815003 0.0 -6.964101434452621e-05 0.0010308871458644352 0.0 -6.704330158553926e-05 0.0010304607799568762 0.0 -6.54409171157086e-05 0.0010131082902752658 0.0 -6.307409330761822e-05 0.0009911593385755035 0.0 -6.193415897135742e-05 0.0009748791544725369 0.0 -6.172231850814189e-05 0.0009574706159397185 0.0 -6.0134693798534754e-05 0.0009368502842385789 0.0 -6.074233729180387e-05 0.00091783981546004 0.0 -6.100498436130629e-05 0.0008951297858742209 0.0 -6.013772706200371e-05 0.0008718651263478626 0.0 -6.079625671965661e-05 0.0008486452810580014 0.0 -3.2017587722264805e-05 0.0006052375583260375 0.0 -4.397513729442131e-05 0.00055833680552551 0.0 -4.5308082388043145e-05 0.0005656814840737997 0.0 -4.50192846406443e-05 0.0005739095120312199 0.0 -4.02055126118797e-05 0.0005841984591282377 0.0 -3.764814973282239e-05 0.0005934765094685903 0.0 -3.7326896603953505e-05 0.0005982813846353524 0.0 -3.151991035068037e-05 0.000585313858564544 0.0 -3.4488585273512725e-05 0.0006042126487163546 0.0 -4.2823620928518e-05 0.0005989579215588966 0.0 -4.3443921484440914e-05 0.0006089509373959307 0.0 -3.989971193278811e-05 0.0006165543175455177 0.0 -4.384659247388252e-05 0.0006240756015043664 0.0 -3.936492181030652e-05 0.0006260144318136442 0.0 -4.19607958625221e-05 0.000622523444413026 0.0 -3.885675543652077e-05 0.0006238073335616463 0.0 -4.166262717761487e-05 0.000621260956888847 0.0 -3.937235322419352e-05 0.0006204619763855916 0.0 -3.79609536697016e-05 0.0006162120203053121 0.0 -3.447413580879812e-05 0.0006125789055709562 0.0 -5.051598558529019e-06 0.0007017229173571026 0.0 -5.264461760299734e-06 0.0006932958215839673 0.0 -9.304475240966832e-06 0.0006866738400399252 0.0 -1.6026316700831997e-05 0.0006750955439708398 0.0 -1.750050111573513e-05 0.000666557095762775 0.0 -2.044817939667175e-05 0.0006599001730229963 0.0 -2.8457899262523027e-05 0.0006434214345186425 0.0 -2.682211943958564e-05 0.0006408620571385886 0.0 -2.9029369238028678e-05 0.0006282466054352714 0.0 -3.170587764277529e-05 0.0006191815498230393 0.0 -4.675805724004952e-05 0.0005628126138114345 0.0 -5.0195512274247425e-05 0.0005605951135486412 0.0 -4.955230413032185e-05 0.0005642403441012571 0.0 -5.114851202596819e-05 0.0005635398748429926 0.0 -4.91818267221287e-05 0.0005658509268760218 0.0 -5.0861553727681965e-05 0.0005691197935118256 0.0 -5.2358798730819924e-05 0.0005671693807811419 0.0 -4.933389191016246e-05 0.0005708440533141881 0.0 -5.047442982210132e-05 0.0005702338873522517 0.0 -5.316410947915398e-05 0.0005714935336354001 0.0 -5.124443393249502e-05 0.0005730874796625313 0.0 -5.643989058616557e-05 0.0005645089035836337 0.0 -5.630183555666382e-05 0.0005733164625808032 0.0 -4.48694728029366e-05 0.000564838897929211 0.0 -4.817638842886038e-05 0.0005676722280385113 0.0 -4.7755276804407574e-05 0.0005668544530766551 0.0 -4.7145040268770215e-05 0.0005694641604038066 0.0 -4.7647494681538896e-05 0.0005714753912389414 0.0 -4.8296147915513645e-05 0.000570721705138463 0.0 -4.913221760826523e-05 0.0005697439052373014 0.0 -5.1786112542722295e-05 0.0005695717211361596 0.0 -5.165109773413002e-05 0.0005703032608847669 0.0 -4.834933526887048e-05 0.0005679380210307141 0.0 -4.9053600280744185e-05 0.0005756831860942588 0.0 -4.945671981646027e-05 0.0005674373445553295 0.0 -4.859828155329316e-05 0.0005739848219669464 0.0 -4.3799327308078236e-05 0.0005752568399015664 0.0 -4.769141781858818e-05 0.0005759637174644133 0.0 -4.550861596250402e-05 0.0005791755500876962 0.0 -4.5566001262049456e-05 0.0005759885154024973 0.0 -4.861256245147243e-05 0.0005756045212831015 0.0 -4.86079187927452e-05 0.0005786055114568056 0.0 -4.825745264412054e-05 0.0005769407778025106 0.0 -4.907967778595913e-05 0.0005766141210448562 0.0 -5.081335497827705e-05 0.0005752774266544409 0.0 -4.628918699379599e-05 0.0005751482608168667 0.0 -5.1718158876038175e-05 0.0005752043013591356 0.0 -4.3502119453484916e-05 0.0005704975716814623 0.0 -4.8871630791314615e-05 0.0005682153101147419 0.0 -4.2041891167178944e-05 0.0005864294298710719 0.0 -4.3764253649326033e-05 0.0005886955327468164 0.0 -4.482747408014264e-05 0.0005858574846886997 0.0 -4.488543761743216e-05 0.0005891326422965246 0.0 -4.51743775387902e-05 0.0005887245130295296 0.0 -4.7140773517341284e-05 0.0005871155044737953 0.0 -4.896735008809455e-05 0.0005864049112951586 0.0 -4.6446992688350265e-05 0.0005818935874001714 0.0 -4.706159893898157e-05 0.0005824646278762486 0.0 -4.975463439846838e-05 0.0005807014797237414 0.0 -4.364530116662629e-05 0.000577271462634102 0.0 -4.5576783125164264e-05 0.0005755757517039904 0.0 -4.43442346371065e-05 0.0005792938930630266 0.0 -4.138615066267331e-05 0.0005971464190831421 0.0 -4.1442832214737126e-05 0.0005999803960682277 0.0 -4.296606893873652e-05 0.0006031098534826558 0.0 -4.35186041609423e-05 0.000600470457876529 0.0 -4.472464559244058e-05 0.0005993605670201463 0.0 -4.8167384573427e-05 0.0006020160806155933 0.0 -4.53781047855812e-05 0.0006009444470308828 0.0 -4.528423324231308e-05 0.0005920434635985877 0.0 -4.623063580510025e-05 0.0005901785931574415 0.0 -4.59532402137538e-05 0.0005893695677638876 0.0 -5.0931373826414964e-05 0.0005820617006532592 0.0 -4.0125342761499704e-05 0.0005810735506697765 0.0 -4.225619614096415e-05 0.0005764562536424191 0.0 -3.832481178947914e-05 0.0006052099841153738 0.0 -3.9568541796516374e-05 0.0006102950785934889 0.0 -3.962128162030069e-05 0.0006132512369855591 0.0 -4.402569024108653e-05 0.00061547090879853 0.0 -4.3988237207226964e-05 0.0006150119579342474 0.0 -4.101239833268004e-05 0.0006167536799488655 0.0 -4.443454279490095e-05 0.0006094561334891479 0.0 -4.4863813980422555e-05 0.0006096274024337019 0.0 -4.760183149023081e-05 0.0006063132029917552 0.0 -4.275503078039169e-05 0.0005977661678533817 0.0 -3.913818624801725e-05 0.0005963435537924216 0.0 -4.2452980062390624e-05 0.000581511182557001 0.0 -3.951420426132842e-05 0.0005750814671199923 0.0 -3.4074701645194256e-05 0.0005988807774980456 0.0 -2.7083377217674043e-05 0.0006001597755709889 0.0 -1.7696421771102044e-05 0.0006172580719765101 0.0 -1.8557213162678483e-05 0.0006131982813173989 0.0 -1.3315411506505812e-05 0.0006342393532447116 0.0 -9.493285767838604e-06 0.0006365182146555713 0.0 -1.723127759922328e-05 0.0006670458133895346 0.0 -1.3632827837184836e-05 0.0006839105746226471 0.0 -4.68705443137908e-06 0.0006978150992561442 0.0 -1.0552298959727428e-05 0.0007105199012679617 0.0 -3.466226421472316e-05 0.0005990726242410368 0.0 -3.65275984507867e-05 0.0006159697595249492 0.0 -1.940767889111726e-05 0.0006232715733016485 0.0 -3.2028457104068585e-05 0.0006410372018688759 0.0 -1.4700353697046567e-05 0.0006599229867789208 0.0 -1.7401476210407918e-05 0.000671886439565958 0.0 -1.462401087201369e-05 0.000675168462279041 0.0 -6.193632101073501e-06 0.0006848345825909855 0.0 -1.4319298104024113e-05 0.0007000903433537373 0.0 -1.905901222851773e-05