<?xml version="1.0" ?>
<VTKFile byte_order="LittleEndian" type="UnstructuredGrid" version="0.1">
<UnstructuredGrid>
<Piece NumberOfCells="3478" NumberOfPoints="1836">
<Points>
<DataArray NumberOfComponents="3" format="ascii" type="Float32">0.0 0.0 0.0 0.0 30.0 0.0 90.0 0.0 0.0 90.0 30.0 0.0 45.0 14.7 0.0 45.0 19.7 0.0 45.0 9.7 0.0 44.0245483899222 19.60392640201672 0.0 43.08658283818048 19.31939766255888 0.0 42.22214883490896 18.85734806151738 0.0 41.46446609407355 18.23553390593903 0.0 40.84265193849559 17.47785116511045 0.0 40.38060233744971 16.61341716184027 0.0 40.09607359798762 15.67545161009959 0.0 40.0 14.7000000000206 0.0 40.09607359798068 13.72454838993527 0.0 40.38060233743827 12.78658283818735 0.0 40.84265193848201 11.92214883490987 0.0 41.46446609406021 11.16446609407431 0.0 42.22214883489495 10.54265193849198 0.0 43.08658283817165 10.08060233744477 0.0 44.02454838991945 9.79607359798383 0.0 45.97545161007786 9.796073597983295 0.0 46.91341716181914 10.08060233744095 0.0 47.77785116509095 10.54265193848255 0.0 48.53553390592572 11.16446609406025 0.0 49.15734806150372 11.92214883488851 0.0 49.61939766255018 12.78658283815946 0.0 49.90392640201246 13.72454838990077 0.0 50.0 14.69999999997977 0.0 49.90392640201924 15.67545161006509 0.0 49.6193976625616 16.61341716181298 0.0 49.15734806151947 17.47785116508791 0.0 48.53553390594058 18.23553390592489 0.0 47.77785116510518 18.85734806150794 0.0 46.91341716182851 19.31939766255517 0.0 45.97545161008048 19.60392640201618 0.0 0.0 1.499999999999333 0.0 0.0 2.999999999999543 0.0 0.0 4.499999999999284 0.0 0.0 5.999999999997914 0.0 0.0 7.499999999996543 0.0 0.0 8.999999999992466 0.0 0.0 10.49999999998665 0.0 0.0 11.99999999998084 0.0 0.0 13.49999999997503 0.0 0.0 14.99999999996956 0.0 0.0 16.49999999997229 0.0 0.0 17.99999999997536 0.0 0.0 19.49999999997843 0.0 0.0 20.9999999999815 0.0 0.0 22.49999999998457 0.0 0.0 23.99999999998764 0.0 0.0 25.49999999999073 0.0 0.0 26.99999999999382 0.0 0.0 28.49999999999692 0.0 90.0 1.499999999999333 0.0 90.0 2.999999999999543 0.0 90.0 4.499999999999284 0.0 90.0 5.999999999997914 0.0 90.0 7.499999999996543 0.0 90.0 8.999999999992466 0.0 90.0 10.49999999998665 0.0 90.0 11.99999999998084 0.0 90.0 13.49999999997503 0.0 90.0 14.99999999996956 0.0 90.0 16.49999999997229 0.0 90.0 17.99999999997536 0.0 90.0 19.49999999997843 0.0 90.0 20.9999999999815 0.0 90.0 22.49999999998457 0.0 90.0 23.99999999998764 0.0 90.0 25.49999999999073 0.0 90.0 26.99999999999382 0.0 90.0 28.49999999999692 0.0 1.499999999999597 30.0 0.0 2.999999999999036 30.0 0.0 4.499999999998088 30.0 0.0 5.999999999997163 30.0 0.0 7.499999999997185 30.0 0.0 8.999999999997288 30.0 0.0 10.49999999999739 30.0 0.0 11.99999999999602 30.0 0.0 13.49999999999316 30.0 0.0 14.9999999999903 30.0 0.0 16.49999999998744 30.0 0.0 17.99999999998458 30.0 0.0 19.49999999998172 30.0 0.0 20.99999999997887 30.0 0.0 22.49999999997601 30.0 0.0 23.99999999997315 30.0 0.0 25.4999999999703 30.0 0.0 26.99999999996745 30.0 0.0 28.49999999996459 30.0 0.0 29.99999999996174 30.0 0.0 31.49999999995888 30.0 0.0 32.99999999995603 30.0 0.0 34.49999999995318 30.0 0.0 35.99999999995033 30.0 0.0 37.49999999994748 30.0 0.0 38.99999999994462 30.0 0.0 40.49999999994177 30.0 0.0 41.99999999993892 30.0 0.0 43.49999999993607 30.0 0.0 44.99999999993459 30.0 0.0 46.49999999994219 30.0 0.0 47.99999999995118 30.0 0.0 49.49999999996015 30.0 0.0 50.99999999996914 30.0 0.0 52.49999999997812 30.0 0.0 53.99999999998711 30.0 0.0 55.49999999999608 30.0 0.0 57.00000000000507 30.0 0.0 58.50000000001404 30.0 0.0 60.00000000002303 30.0 0.0 61.500000000032 30.0 0.0 63.00000000004099 30.0 0.0 64.50000000004795 30.0 0.0 66.00000000004582 30.0 0.0 67.50000000004296 30.0 0.0 69.00000000004009 30.0 0.0 70.50000000003723 30.0 0.0 72.00000000003436 30.0 0.0 73.5000000000315 30.0 0.0 75.00000000002863 30.0 0.0 76.50000000002578 30.0 0.0 78.00000000002291 30.0 0.0 79.50000000002005 30.0 0.0 81.0000000000172 30.0 0.0 82.50000000001431 30.0 0.0 84.00000000001147 30.0 0.0 85.50000000000858 30.0 0.0 87.00000000000573 30.0 0.0 88.50000000000286 30.0 0.0 1.499999999999597 0.0 0.0 2.999999999999036 0.0 0.0 4.499999999998088 0.0 0.0 5.999999999997163 0.0 0.0 7.499999999997185 0.0 0.0 8.999999999997288 0.0 0.0 10.49999999999739 0.0 0.0 11.99999999999602 0.0 0.0 13.49999999999316 0.0 0.0 14.9999999999903 0.0 0.0 16.49999999998744 0.0 0.0 17.99999999998458 0.0 0.0 19.49999999998172 0.0 0.0 20.99999999997887 0.0 0.0 22.49999999997601 0.0 0.0 23.99999999997315 0.0 0.0 25.4999999999703 0.0 0.0 26.99999999996745 0.0 0.0 28.49999999996459 0.0 0.0 29.99999999996174 0.0 0.0 31.49999999995888 0.0 0.0 32.99999999995603 0.0 0.0 34.49999999995318 0.0 0.0 35.99999999995033 0.0 0.0 37.49999999994748 0.0 0.0 38.99999999994462 0.0 0.0 40.49999999994177 0.0 0.0 41.99999999993892 0.0 0.0 43.49999999993607 0.0 0.0 44.99999999993459 0.0 0.0 46.49999999994219 0.0 0.0 47.99999999995118 0.0 0.0 49.49999999996015 0.0 0.0 50.99999999996914 0.0 0.0 52.49999999997812 0.0 0.0 53.99999999998711 0.0 0.0 55.49999999999608 0.0 0.0 57.00000000000507 0.0 0.0 58.50000000001404 0.0 0.0 60.00000000002303 0.0 0.0 61.500000000032 0.0 0.0 63.00000000004099 0.0 0.0 64.50000000004795 0.0 0.0 66.00000000004582 0.0 0.0 67.50000000004296 0.0 0.0 69.00000000004009 0.0 0.0 70.50000000003723 0.0 0.0 72.00000000003436 0.0 0.0 73.5000000000315 0.0 0.0 75.00000000002863 0.0 0.0 76.50000000002578 0.0 0.0 78.00000000002291 0.0 0.0 79.50000000002005 0.0 0.0 81.0000000000172 0.0 0.0 82.50000000001431 0.0 0.0 84.00000000001147 0.0 0.0 85.50000000000858 0.0 0.0 87.00000000000573 0.0 0.0 88.50000000000286 0.0 0.0 63.37364706550937 16.50964628420433 0.0 26.62635293463404 16.50964628433121 0.0 13.41978650690528 13.45950154969383 0.0 76.58021349318176 13.45950154962137 0.0 33.45476071497805 8.290175608698323 0.0 56.54523928495111 8.290175608661723 0.0 56.52897059443286 20.86236316873536 0.0 33.47102940567571 20.86236316876138 0.0 71.2830521058756 21.04460405596809 0.0 18.71694789423233 21.04460405599743 0.0 21.41980901986561 9.070463267320616 0.0 68.58019098027053 9.07046326726413 0.0 80.99914552692991 20.97721309723637 0.0 9.000854473061795 20.97721309727302 0.0 7.870305877421703 8.018059563575596 0.0 82.12969412262107 8.018059563525435 0.0 33.7165245411982 14.65399207417489 0.0 56.28347545881759 14.65399207414136 0.0 39.97305498366637 24.34223222603792 0.0 50.02694501636432 24.34223222603521 0.0 38.06318796926433 6.581870986627434 0.0 51.65683578806563 6.660577520338367 0.0 62.64972062822329 23.28495574336215 0.0 27.35027937196879 23.28495574342431 0.0 14.97502445613706 6.824785268959483 0.0 75.02497554396214 6.824785268919009 0.0 6.787494920844402 14.64311087002373 0.0 83.2125050791834 14.64311087005626 0.0 62.74377049329286 6.199343823534628 0.0 27.25622950671565 6.19934382349436 0.0 45.000000000016 24.81766533538266 0.0 43.95657580818752 4.66610370877416 0.0 20.65769446566512 15.12449163383865 0.0 69.34230553450763 15.12449163379761 0.0 37.96200801440695 20.41720228097835 0.0 52.03799198563937 20.41720228095547 0.0 60.84525610777352 11.56302347148087 0.0 29.15474389221305 11.56302347157453 0.0 13.9479594477568 24.07830472189175 0.0 76.05204055230455 24.07830472189373 0.0 37.10725181280449 10.48234091456723 0.0 52.87039497378214 10.64738567442688 0.0 76.13945330379045 19.16176902849947 0.0 13.86054669631562 19.16176902853507 0.0 47.5363758303687 6.338689435416557 0.0 34.86428980814253 25.34552342098224 0.0 55.13571019192649 25.34552342097093 0.0 22.30941555412428 24.72828550626092 0.0 67.69058444605145 24.72828550626487 0.0 84.713423002924 24.99937419725806 0.0 5.286576997074654 24.99937419725982 0.0 53.00114321705956 17.18011225714096 0.0 36.99885678297024 17.18011225718971 0.0 23.5598838532369 20.42784805271946 0.0 66.44011614689009 20.42784805259263 0.0 19.30012895581989 4.590769543361563 0.0 70.69987104427214 4.590769543316364 0.0 34.65194187852933 4.323942427443631 0.0 55.3509190897658 4.276953815657579 0.0 24.56326495034983 12.51090819943921 0.0 65.43673504967131 12.51090819926273 0.0 4.675281458987522 18.75593683549119 0.0 85.32471854101604 18.75593683552496 0.0 59.27549643767956 17.55657731658075 0.0 30.72450356243039 17.55657731666243 0.0 4.48422503831524 4.681086215913009 0.0 85.51577496171463 4.681086215890073 0.0 17.49653004164637 11.94727187727593 0.0 72.50346995845473 11.94727187724224 0.0 10.98527091569449 4.578615553731414 0.0 79.0147290843752 4.578615553705176 0.0 58.91405463068145 25.62404760730938 0.0 31.08594536941772 25.6240476073746 0.0 85.5241378133564 10.79876961335222 0.0 4.475862186642179 10.79876961333991 0.0 42.66656627406208 22.55964308489288 0.0 47.33343372595118 22.55964308489816 0.0 9.583286029275847 25.4002693669458 0.0 80.41671397074799 25.40026936696242 0.0 53.06845121340182 13.81856388174299 0.0 36.93154878659712 13.81856388180116 0.0 17.8174374277252 25.57763591150952 0.0 72.18256257238082 25.5776359115521 0.0 66.48712173895905 4.220888897947975 0.0 23.51287826110802 4.220888897905488 0.0 59.31833062037198 4.22591876993067 0.0 30.68166937960341 4.225918769883755 0.0 11.77463693523386 9.605550025953741 0.0 78.22536306483727 9.60555002590434 0.0 41.61323298424063 7.118443406710728 0.0 40.49821449791196 3.657232821442271 0.0 10.5266603073137 16.32186666614573 0.0 79.47333969271385 16.32186666603704 0.0 16.67405390020416 15.97604740026929 0.0 73.32594609994788 15.97604740025251 0.0 49.78436784633756 3.517636631289772 0.0 49.88839936442268 8.765969189103764 0.0 60.0639438556624 21.0617009560476 0.0 29.93605614447742 21.06170095609978 0.0 55.93957776705275 11.46129603095351 0.0 34.06042223290302 11.46129603098422 0.0 42.080133866937 26.6941411693382 0.0 47.61442067123723 26.51556330917287 0.0 39.44356817596738 9.167540042382463 0.0 29.86186672815856 8.62859477986549 0.0 60.13813327177503 8.62859477979463 0.0 81.60488436417148 11.7395599460253 0.0 8.395115635915154 11.73955994604578 0.0 56.13971841765213 17.80631872018535 0.0 33.86028158239547 17.80631872019029 0.0 46.635920
[...]
<PointData>
<DataArray Name="displ" NumberOfComponents="3" format="ascii" type="Float32">-0.42500964634134236 -0.03570996365620279 0.0 -0.4291525151711404 -0.048572922013653264 0.0 -0.16613598230880242 -0.011899492785749616 0.0 -0.17381505147014945 -0.025639491523657163 0.0 -0.3979752329833869 -0.03725292578222166 0.0 -0.29744489075104397 -0.05177710953707086 0.0 -0.29732370514095235 -0.011615794305573775 0.0 -0.30665296243241974 -0.05288544069825855 0.0 -0.3170841151706669 -0.05087034151759536 0.0 -0.3283429354898166 -0.04677757794635398 0.0 -0.33457638267631035 -0.045451784285797193 0.0 -0.3424953930968149 -0.04299130137410203 0.0 -0.34818275306505264 -0.04078853023877287 0.0 -0.35066151859804967 -0.036910902629544655 0.0 -0.3517961424012466 -0.03544871270661744 0.0 -0.350270256133397 -0.03226050948747944 0.0 -0.34821992393078866 -0.028977288221069795 0.0 -0.3418605579515835 -0.026617628670345485 0.0 -0.33578024158550973 -0.02419928171172469 0.0 -0.3271415628402434 -0.021027628035097314 0.0 -0.3168868465173027 -0.016112685251516625 0.0 -0.3065339570618798 -0.013284599417032267 0.0 -0.28599755602515325 -0.015316381438594465 0.0 -0.274469619438326 -0.015816942893342276 0.0 -0.26300772365109404 -0.018130577266759734 0.0 -0.2545160418377514 -0.0209321794431284 0.0 -0.24632403679099163 -0.02492898937577307 0.0 -0.24158367154754304 -0.029553518494075493 0.0 -0.2388647827153251 -0.03149467299787578 0.0 -0.23772242094563642 -0.03337726315016865 0.0 -0.23922671503513573 -0.034872632686941823 0.0 -0.24256979816352825 -0.038022587042016054 0.0 -0.2502953122997078 -0.04020063622971784 0.0 -0.2609274244037708 -0.04341830932633548 0.0 -0.26880422784861063 -0.04788957234678589 0.0 -0.28025759839242026 -0.05021783481500449 0.0 -0.2886949758237572 -0.051126253733424144 0.0 -0.4259234334344241 -0.03484444589484887 0.0 -0.42763656712857956 -0.034707924109615436 0.0 -0.42698445501695714 -0.03645271139466031 0.0 -0.426053127103225 -0.036928939844146844 0.0 -0.4268276981631109 -0.03672360374695004 0.0 -0.4274466430705495 -0.038052308885690875 0.0 -0.4274973719655023 -0.03908626128396172 0.0 -0.42830783977322473 -0.039696493131155614 0.0 -0.4285963094923046 -0.041348110917729726 0.0 -0.42760331896292014 -0.042422736560059175 0.0 -0.42838542743217023 -0.04353514181151186 0.0 -0.4287078492845962 -0.04346377696215795 0.0 -0.4281183719262781 -0.043133600121273874 0.0 -0.4297891695414412 -0.04497648526942865 0.0 -0.43059551009697916 -0.0449165499992345 0.0 -0.4297229384202784 -0.04658611996323342 0.0 -0.4295910480279783 -0.047128367837674476 0.0 -0.429295535403448 -0.04599267175280003 0.0 -0.42950326585095466 -0.04691649800670451 0.0 -0.16720976985430583 -0.013259964243654453 0.0 -0.1669261009950523 -0.014082393120904703 0.0 -0.16913571487820078 -0.017782690435861077 0.0 -0.1709745890903075 -0.018812836851361883 0.0 -0.17004210438154746 -0.021301035511883903 0.0 -0.17027147962370523 -0.02309299947576618 0.0 -0.17034060964535608 -0.025073074693306788 0.0 -0.1702996847588796 -0.024791894749609626 0.0 -0.17016659291650488 -0.02512964997839549 0.0 -0.17126297204575827 -0.024730206559674228 0.0 -0.16881725645280699 -0.023985754237729653 0.0 -0.1702738413370019 -0.02325091222140371 0.0 -0.17089645069084472 -0.02377217715784261 0.0 -0.1710260298333813 -0.022930309005183475 0.0 -0.17238935563078103 -0.023646670507670893 0.0 -0.1733866184060394 -0.02431367544906424 0.0 -0.17326980739844516 -0.02451149906951331 0.0 -0.1743328836367914 -0.02524600410957436 0.0 -0.17358260882718862 -0.024781106612621756 0.0 -0.4268151070204695 -0.04738949752216577 0.0 -0.4220519349220151 -0.04625034263133233 0.0 -0.416398708866507 -0.04452610396719857 0.0 -0.4119809525776022 -0.04445234406851265 0.0 -0.40650650806878613 -0.04362107792738196 0.0 -0.40101654855504637 -0.04345789664679578 0.0 -0.3970060367709273 -0.04338796164829214 0.0 -0.393598203752433 -0.04290072252019804 0.0 -0.390553421941011 -0.042057062401935186 0.0 -0.38714882390132194 -0.041555639224627364 0.0 -0.3832718115804767 -0.040934242399193146 0.0 -0.37983958406220164 -0.040754591689898145 0.0 -0.37550610942657703 -0.04060363624686926 0.0 -0.3717030629699171 -0.039732754723945385 0.0 -0.36796112592595026 -0.039303392159267446 0.0 -0.3636274169420032 -0.03997587654073021 0.0 -0.35943920724872996 -0.040942300316878746 0.0 -0.3550326946837563 -0.041314756670827894 0.0 -0.35115503798711134 -0.04125793795647488 0.0 -0.3448965230951799 -0.039803089754519135 0.0 -0.3397110773373727 -0.04031003136109866 0.0 -0.3341665872370403 -0.04246346807607055 0.0 -0.3283445844971396 -0.043281601297828015 0.0 -0.32306964059337745 -0.043119338468781264 0.0 -0.31833543201902015 -0.044338127896940985 0.0 -0.313932763095583 -0.04602613362224441 0.0 -0.31041299269151396 -0.048503226282007594 0.0 -0.30576858625912506 -0.05251085915006589 0.0 -0.3033772935264624 -0.05319132692999832 0.0 -0.30159552658412997 -0.054519398180699764 0.0 -0.2976883911192373 -0.053902660894593786 0.0 -0.2950374058418598 -0.053052595927258146 0.0 -0.2921088641048291 -0.05058220011223785 0.0 -0.2882878403944729 -0.04843642952163512 0.0 -0.2831875399774953 -0.046074853931691896 0.0 -0.27714778909032395 -0.04377465314755007 0.0 -0.27079024189919365 -0.04358293176587933 0.0 -0.2649837793193002 -0.0399487451817637 0.0 -0.2585196400700846 -0.03840740428520861 0.0 -0.2522811536392931 -0.0361822351353828 0.0 -0.2480945817687434 -0.0331643355613785 0.0 -0.24245937603013648 -0.03533464385546836 0.0 -0.2385723632432863 -0.03496814375793782 0.0 -0.2328361068617102 -0.03452665304108169 0.0 -0.2292102625112873 -0.03521848774480816 0.0 -0.22879311313387507 -0.03167081370505362 0.0 -0.22455861785204634 -0.03070792461413395 0.0 -0.2230847650975421 -0.03031372650739316 0.0 -0.21828481277773573 -0.028024223998059306 0.0 -0.21231168657465893 -0.03107696712375874 0.0 -0.20865843674124324 -0.029412927890689985 0.0 -0.20428949077350284 -0.029037501749641717 0.0 -0.2003720505470863 -0.029227618374551546 0.0 -0.1947260245685532 -0.0267476911238149 0.0 -0.19243957349770405 -0.025989214740915534 0.0 -0.18847162298621448 -0.02643059800455142 0.0 -0.185269415975278 -0.02728957347289111 0.0 -0.18098664871725823 -0.02565814267386046 0.0 -0.17807169713212065 -0.025383239636659824 0.0 -0.42168830378405253 -0.03511605183854308 0.0 -0.4177277695713416 -0.03504789954231473 0.0 -0.4109404977992962 -0.034236690771607924 0.0 -0.4077983201972277 -0.03570320096688638 0.0 -0.4068056586097176 -0.035836662444755765 0.0 -0.4044764248581753 -0.036709486861014856 0.0 -0.4012325744324593 -0.03570065147188797 0.0 -0.39749877716770954 -0.035230228748430785 0.0 -0.39189295106044536 -0.03516820417627395 0.0 -0.38913965739263007 -0.03388236510396968 0.0 -0.3843610495146778 -0.032086514148908174 0.0 -0.37759649293571484 -0.03363853517988532 0.0 -0.3718398489240275 -0.03253406553907142 0.0 -0.3661050841446556 -0.03138709345249208 0.0 -0.360587681656921 -0.030928079348599268 0.0 -0.3554253723686063 -0.03163377740282296 0.0 -0.35067008036892633 -0.03007242792648846 0.0 -0.3442916543767107 -0.02968235783064949 0.0 -0.33995634581832 -0.031843926502008686 0.0 -0.3352127836913265 -0.030312859941768296 0.0 -0.3293408330053802 -0.030474718773783372 0.0 -0.32382530312652186 -0.02983824974370037 0.0 -0.31922529870403565 -0.028735746993393266 0.0 -0.3148001165742524 -0.027101362610252495 0.0 -0.31187636354588055 -0.023353181888852822 0.0 -0.30683408407133067 -0.021101426827062317 0.0 -0.3022398323552095 -0.01700699468723748 0.0 -0.2981616081412236 -0.012933924237609452 0.0 -0.29446585426368777 -0.012201378672339796 0.0 -0.28969995753713207 -0.011901853178578819 0.0 -0.2856310844780057 -0.012658812711133793 0.0 -0.2823446169076722 -0.01413257561193409 0.0 -0.278170189235358 -0.016079099550028935 0.0 -0.27475061418271646 -0.018082409096758196 0.0 -0.26884875203130937 -0.021320731049045576 0.0 -0.262756137818439 -0.021497869126769993 0.0 -0.25837557034700726 -0.021814168845926983 0.0 -0.2539061802692864 -0.022428481113951935 0.0 -0.24958468361124106 -0.022672177953369187 0.0 -0.24558365639445204 -0.02243262553672667 0.0 -0.2392267507543455 -0.022098778917672705 0.0 -0.23365925467113677 -0.0196963242958071 0.0 -0.22941755509752607 -0.01985035883096764 0.0 -0.225722512042328 -0.018773500704607825 0.0 -0.22174947248985066 -0.017506140299241024 0.0 -0.21663467812080084 -0.01777336060364461 0.0 -0.2144937860469315 -0.016427156694720713 0.0 -0.2104382010976445 -0.01590511820807342 0.0 -0.20539415266810743 -0.014648467054559758 0.0 -0.20211543773542445 -0.014466109781031791 0.0 -0.1979109271201998 -0.014388990065438732 0.0 -0.19309431444485314 -0.014304872286479389 0.0 -0.18963827043437373 -0.013424769141050839 0.0 -0.1869587470083095 -0.013258214531017429 0.0 -0.1833872473499184 -0.013504778517435147 0.0 -0.17895797571725514 -0.01158261107818356 0.0 -0.17650327219234296 -0.011804784660851516 0.0 -0.17327391309695778 -0.011587627210795162 0.0 -0.16865934134847363 -0.011331947509262376 0.0 -0.22830161460766024 -0.03482830090946873 0.0 -0.36329898867137633 -0.03788128759138175 0.0 -0.39660195086811156 -0.038206820503051096 0.0 -0.2012044538960545 -0.030086456886753314 0.0 -0.3356740389322004 -0.037214058371281035 0.0 -0.2436038441615013 -0.02984897664636346 0.0 -0.2503630707210503 -0.03311600952541565 0.0 -0.338294336202501 -0.0374972295582107 0.0 -0.21627929229102766 -0.02919192664364184 0.0 -0.3812003375547703 -0.03636335419877836 0.0 -0.369058119051592 -0.03678786394447139 0.0 -0.21812803574778464 -0.028651529772116744 0.0 -0.192239563069162 -0.02645522714565127 0.0 -0.40450257697258246 -0.04212861958200597 0.0 -0.40843297588091715 -0.03845714330826093 0.0 -0.1856421839310843 -0.024482358466365792 0.0 -0.34996961860831477 -0.036428134249302586 0.0 -0.23205592459454172 -0.032557700926861784 0.0 -0.315595918383472 -0.04713682498761961 0.0 -0.2824047430605393 -0.043287067321769006 0.0 -0.3179257677304596 -0.028095299047304272 0.0 -0.26364828731674145 -0.025844222549110483 0.0 -0.2394602069247057 -0.03213892808438834 0.0 -0.3556743296426097 -0.03389809607449347 0.0 -0.3897465298639142 -0.036655731510184 0.0 -0.20250071084767882 -0.0244329918870268 0.0 -0.4118270554308331 -0.042014478832258416 0.0 -0.1853587255393891 -0.028936053498964123 0.0 -0.2306130306164428 -0.025649698609783052 0.0 -0.3505522300726089 -0.035226028638864655 0.0 -0.2991293382651223 -0.05164546597042987 0.0 -0.29705303173243086 -0.014359933394867873 0.0 -0.37716343978184513 -0.037036279948989816 0.0 -0.21629859721480946 -0.03176745810050774 0.0 -0.32981223671813137 -0.039570261684588624 0.0 -0.26287796350392045 -0.035355449356518714 0.0 -0.22847683534487329 -0.03232777826364148 0.0 -0.3550091610099302 -0.03659185495020097 0.0 -0.38952713050500215 -0.040494413812288715 0.0 -0.20739098836363437 -0.0280852896211416 0.0 -0.33685850101788556 -0.034517250772179535 0.0 -0.24485660551985067 -0.031190696186584557 0.0 -0.20415261418804553 -0.02793081708305375 0.0 -0.39298757766417547 -0.039194529682122586 0.0 -0.28238291774511526 -0.01657683908840187 0.0 -0.3287341502170467 -0.0404313566006779 0.0 -0.26701279444743137 -0.03844727353751025 0.0 -0.3691676580947865 -0.03570907861925028 0.0 -0.23116537269939053 -0.027783105166366995 0.0 -0.1850507034479115 -0.025371031485977004 0.0 -0.41458693487662257 -0.04488540771834624 0.0 -0.24296322834909148 -0.03300534204488029 0.0 -0.34550210877013715 -0.03523393742025538 0.0 -0.3685108280100939 -0.03579548465760804 0.0 -0.22840585194775392 -0.030955085582433203 0.0 -0.37321627696661663 -0.03589263748546547 0.0 -0.2147435190995855 -0.020970985291825884 0.0 -0.3232984225848576 -0.0313326969049078 0.0 -0.25588542881309484 -0.02588279950577932 0.0 -0.36658769162756477 -0.037867090214994584 0.0 -0.2229921133542802 -0.03230793468505037 0.0 -0.4179613820837099 -0.04323196609944003 0.0 -0.18112312143129244 -0.023819773827737832 0.0 -0.23549140838466867 -0.03258072219338702 0.0 -0.35161094557917705 -0.03657457005814726 0.0 -0.41475607600914405 -0.03641793635230486 0.0 -0.177000811933233 -0.017410477003476976 0.0 -0.384509175549442 -0.03780231894603957 0.0 -0.21010343336864046 -0.02925799470956534 0.0 -0.3995108316307361 -0.03671432389577201 0.0 -0.19282581903435045 -0.019389878170191083 0.0 -0.2539221879015222 -0.036642078206575175 0.0 -0.341447779919943 -0.037981097532875104 0.0 -0.1787574630962124 -0.026779355982997636 0.0 -0.41728558996929893 -0.03814976127823364 0.0 -0.3080660596488181 -0.05073658585423889 0.0 -0.28905346518219516 -0.049224808152108196 0.0 -0.4003716692739419 -0.041408579881335984 0.0 -0.19609944311441638 -0.026261080884004546 0.0 -0.23620741664699887 -0.03323884396743194 0.0 -0.3491260236724124 -0.0354525791172506 0.0 -0.38064081574994973 -0.0389577914587417 0.0 -0.21828345192052603 -0.02795011222304152 0.0 -0.2244372037321669 -0.021927359955429267 0.0 -0.35833723086406055 -0.03431747939945207 0.0 -0.24306164037881414 -0.024905151990379116 0.0 -0.33681289275534054 -0.03415186230380095 0.0 -0.39950498931302436 -0.039160941312239746 0.0 -0.1960001409708139 -0.02709496220987446 0.0 -0.30794362682348736 -0.018826106823910498 0.0 -0.3072164251481061 -0.018992812202364085 0.0 -0.40291388388334876 -0.03964125000435136 0.0 -0.19514686877477325 -0.028121323612136782 0.0 -0.3871683557959348 -0.037017953161864105 0.0 -0.20832147432988926 -0.030356846793512422 0.0 -0.27519329900475215 -0.019351266296470875 0.0 -0.26569483573834435 -0.0246855860930706 0.0 -0.2431193383589287 -0.03229103141272502 0.0 -0.3495307294946419 -0.03581213105568868 0.0 -0.2347028936172766 -0.031549182131770694 0.0 -0.34483766284584255 -0.03689291765725014 0.0 -0.30794982662532466 -0.05047217987741772 0.0 -0.2928863839959185 -0.050108992864251564 0.0 -0.3239739660853204 -0.028538188537117357 0.0 -0.34720702437531353 -0.037283195655807934 0.0 -0.233447523241947 -0.029155870401713118 0.0 -0.1882651422384807 -0.02835062667290274 0.0 -0.4083582321606668 -0.038600837733842194 0.0 -0.2409850995460331 -0.03186711799843753 0.0 -0.34558294478587614 -0.03633522054471427 0.0 -0.2862566474661166 -0.015065956055982814 0.0 -0.23797765682607802 -0.03270309832046206 0.0 -0.3591692347487423 -0.03685466407954232 0.0 -0.2757621751070789 -0.0436111181748571 0.0 -0.31968470328538506 -0.04419215743029526 0.0 -0.3615517705538244 -0.038555623628542965 0.0 -0.2253869560547976 -0.029058202556723128 0.0 -0.3852513781274467 -0.03589666056212394 0.0 -0.20639022739322604 -0.019561336303492792 0.0 -0.4201228450577749 -0.041819700429632595 0.0 -0.17729293753114317 -0.024568960908059042 0.0 -0.31806745295679084 -0.04551884194039199 0.0 -0.2806618360899682 -0.04409667805915445 0.0 -0.3602920171687881 -0.03650996695601271 0.0 -0.23315863365095935 -0.03314684677811202 0.0 -0.2990366846918137 -0.014618130479687082 0.0 -0.38041210500912764 -0.037859681892095015 0.0 -0.2112032734293693 -0.026735221772568846 0.0 -0.407158210607009 -0.03681592723690888 0.0 -0.1849557032658861 -0.01618253173261698 0.0 -0.3535230568341519 -0.03785576340766172 0.0 -0.23058338578953894 -0.03456598419166365 0.0 -0.42151585513171425 -0.045167269707147496 0.0 -0.18038604830425148 -0.025574307770899758 0.0 -0.32811096019404007 -0.03383703824189755 0.0 -0.2526212757081715 -0.029754689846259706 0.0 -0.3232636879648262 -0.040530792457037584 0.0 -0.26995905752706495 -0.036878474313293906 0.0 -0.1763504924401046 -0.020830349723671863 0.0 -0.41892272000635117 -0.03915546953594081 0.0 -0.2338986374702559 -0.023736475221442805 0.0 -0.34505689058992556 -0.03332549983820039 0.0 -0.3698599781586744 -0.03744204141500022 0.0 -0.2232883221731778 -0.03301433851008411 0.0 -0.31381219473629807 -0.02608236917421843 0.0 -0.29895812617712675 -0.05289458810592456 0.0 -0.21745580372854495 -0.03210765666713536 0.0 -0.3785954914511848 -0.0363932529647365 0.0 -0.18862225220081422 -0.025310773144486903 0.0 -0.40785634709537655 -0.04271502978146893 0.0 -0.3910798331223845 -0.037986725403246206 0.0 -0.20335497565119276 -0.027577260921999927 0.0 -0.20807222466505307 -0.02891518143888556 0.0 -0.38731275603083853 -0.038288607570238956 0.0 -0.3957879380181011 -0.03989980969631084 0.0 -0.20121388669420148 -0.027168114430821916 0.0 -0.21817314671121454 -0.0326976434285196 0.0 -0.37229368207166547 -0.03777150090809663 0.0 -0.2652550782856262 -0.022412798636440877 0.0 -0.39237651197056983 -0.04113661786897087 0.0 -0.20440996679742895 -0.028356478849508683 0.0 -0.33523531082887903 -0.03671960291173429 0.0 -0.25700843251683936 -0.035891702318140005 0.0 -0.33716170451326477 -0.037212317227263474 0.0 -0.25154855806562937 -0.033440089083007274 0.0 -0.3382411029416505 -0.03868467652547005 0.0 -0.2536004458185691 -0.035384071322549754 0.0 -0.1805447502756417 -0.025000736297352864 0.0 -0.42326835453813466 -0.04730017001855945 0.0 -0.34649404303141396 -0.03665829469343615 0.0 -0.2341646773139539 -0.030494523423371177 0.0 -0.350211521852335 -0.03667614594352504 0.0 -0.2469040023903683 -0.03465549528869801 0.0 -0.3441348157073338 -0.034334122536787796 0.0 -0.24042928927144033 -0.031251229996295656 0.0 -0.3850564402335184 -0.04053462626329342 0.0 -0.2116012671361799 -0.028386892078238513 0.0 -0.4066507991115731 -0.044732244855490794 0.0 -0.1904480044195624 -0.025771807039467937 0.0 -0.22626441492442945 -0.03319144927339456 0.0 -0.36120033598252926 -0.03743895040459058 0.0 -0.3735393482200621 -0.03830502177187092 0.0 -0.22794704411832906 -0.02838955477317879 0.0 -0.334272757048752 -0.03969329985063893 0.0 -0.26484660416827654 -0.039324882343966146 0.0 -0.23333630829343965 -0.02993953481562636 0.0 -0.3650925645519531 -0.035156832753395206 0.0 -0.22391450283931716 -0.030173424244782903 0.0 -0.37360915244176424 -0.03507526004542953 0.0 -0.38649992634572977 -0.037260547366674904 0.0 -0.20998690613723736 -0.0300867571638225 0.0 -0.2280136577836398 -0.02944245332247939 0.0 -0.3555746279008925 -0.03737602562325531 0.0 -0.29846863104400856 -0.014039401269988193 0.0 -0.18700552958638506 -0.025018269470327672 0.0 -0.4117527857393564 -0.04368004292364591 0.0 -0.33207235635169585 -0.0348486177088249 0.0 -0.24685127700553486 -0.027562617729646948 0.0 -0.4027013617117299 -0.03908933648166152 0.0 -0.1943283211409038 -0.028294978608577985 0.0 -0.3931009104274282 -0.03670565884743422 0.0 -0.198360799713231 -0.019135912436983392 0.0 -0.2984369856486991 -0.05331130180898113 0.0 -0.2383471217183876 -0.03352817805612375 0.0 -0.35041167167972 -0.035632211007195186 0.0 -0.3653703512215505 -0.03660253380809472 0.0 -0.21915107096064904 -0.02337187670613658 0.0 -0.25001382426907337 -0.02779713410124219 0.0 -0.1966744556738652 -0.025600393152485145 0.0 -0.39986944861799456 -0.04048342798087739 0.0 -0.21838128735948187 -0.020770323203026603 0.0 -0.3661381579064968 -0.03384252426331333 0.0 -0.17601464282332627 -0.026053897066776282 0.0 -0.42222727175940683 -0.03989925110613281 0.0 -0.27750734016231576 -0.017815105509087846 0.0 -0.20097109329594776 -0.027708786950650068 0.0 -0.3967068819084182 -0.038020015225643515 0.0 -0.3971944343842607 -0.038517602328793546 0.0 -0.19622024431738108 -0.024359438949126996 0.0 -0.2508144105307305 -0.025029422489969273 0.0 -0.32645098499629777 -0.03132292872993098 0.0 -0.4199246559826926 -0.035175940133341556 0.0 -0.1728373904333272 -0.014062774400134273 0.0 -0.2589889567635036 -0.034276761069518054 0.0 -0.33073474573157946 -0.03844670492396453 0.0 -0.28907025919387486 -0.014898546212648285 0.0 -0.25591222082582993 -0.028567385389806355 0.0 -0.351506107730575 -0.03751625183677813 0.0 -0.23104368600385222 -0.03318615790194694 0.0 -0.3665647127687778 -0.03752337598215155 0.0 -0.23118006351859768 -0.03087438094205061 0.0 -0.27347738359223395 -0.020964033067047725 0.0 -0.34880442062931494 -0.03601993689225754 0.0 -0.23514439841084675 -0.03427958418892608 0.0 -0.22041350654347017 -0.033142605943836195 0.0 -0.37048003332135293 -0.03790168180410706 0.0 -0.3576742707910013 -0.03577473107358774 0.0 -0.22571959851890105 -0.025613098161481867 0.0 -0.4241876361203641 -0.0464894206388643 0.0 -0.17957401743395898 -0.02401396269845896 0.0 -0.21998013250708862 -0.02950855083770276 0.0 