<?xml version="1.0" ?>
<VTKFile byte_order="LittleEndian" type="UnstructuredGrid" version="0.1">
<UnstructuredGrid>
<Piece NumberOfCells="1404" NumberOfPoints="1500">
<Points>
<DataArray NumberOfComponents="3" format="ascii" type="Float32">0.0149999997 0.0299999993 0.0 0.0149999997 0.0401869528 0.0 0.00973947905 0.0450999998 0.0 0.0 0.0450999998 0.0 0.0 0.0299999993 0.0 0.0149999997 0.0500130467 0.0 0.0149999997 0.0599999987 0.0 0.0 0.0599999987 0.0 0.0299999993 0.0299999993 0.0 0.0299999993 0.0450999998 0.0 0.0195885208 0.0450999998 0.0 0.0299999993 0.0599999987 0.0 0.0 0.0 0.0 0.0299999993 0.0 0.0 0.0299999993 0.0900000036 0.0 0.0 0.0900000036 0.0 0.00187499996 0.0299999993 0.0 0.00374999992 0.0299999993 0.0 0.00562500022 0.0299999993 0.0 0.00749999983 0.0299999993 0.0 0.00937500037 0.0299999993 0.0 0.0112500004 0.0299999993 0.0 0.0131249996 0.0299999993 0.0 0.0149999997 0.0309388097 0.0 0.0149999997 0.0315993913 0.0 0.0149999997 0.0322599746 0.0 0.0149999997 0.0329205543 0.0 0.0149999997 0.0335811377 0.0 0.0149999997 0.0342417173 0.0 0.0149999997 0.0349023007 0.0 0.0149999997 0.0355628803 0.0 0.0149999997 0.0362234637 0.0 0.0149999997 0.0368840471 0.0 0.0149999997 0.0375446267 0.0 0.0149999997 0.0382052101 0.0 0.0149999997 0.0388657898 0.0 0.0149999997 0.0395263731 0.0 0.0145518444 0.0401767567 0.0 0.0141046178 0.0402073525 0.0 0.0136620263 0.0402784906 0.0 0.0132277375 0.0403895788 0.0 0.0128053501 0.0405397005 0.0 0.012398364 0.0407276079 0.0 0.0120101506 0.0409517474 0.0 0.0116439275 0.0412102602 0.0 0.0113027301 0.0415010042 0.0 0.0109893847 0.0418215692 0.0 0.0107064871 0.042169299 0.0 0.0104563832 0.0425413139 0.0 0.0102411434 0.0429345332 0.0 0.010062553 0.0433456935 0.0 0.00992209092 0.0437713899 0.0 0.00982092042 0.0442080945 0.0 0.00975988153 0.0446521938 0.0 0.00910791382 0.0450999998 0.0 0.00847634859 0.0450999998 0.0 0.0078447843 0.0450999998 0.0 0.00721321953 0.0450999998 0.0 0.00658165431 0.0450999998 0.0 0.00595008954 0.0450999998 0.0 0.00531852478 0.0450999998 0.0 0.00468696002 0.0450999998 0.0 0.00405539526 0.0450999998 0.0 0.00342383026 0.0450999998 0.0 0.0027922655 0.0450999998 0.0 0.00216070074 0.0450999998 0.0 0.00152913586 0.0450999998 0.0 0.000897571037 0.0450999998 0.0 0.0 0.0438416675 0.0 0.0 0.0425833352 0.0 0.0 0.0413249992 0.0 0.0 0.0400666669 0.0 0.0 0.0388083346 0.0 0.0 0.0375499986 0.0 0.0 0.0362916663 0.0 0.0 0.035033334 0.0 0.0 0.0337750018 0.0 0.0 0.0325166658 0.0 0.0 0.0312583335 0.0 0.00975988153 0.0455478057 0.0 0.00982092042 0.045991905 0.0 0.00992209092 0.0464286096 0.0 0.010062553 0.046854306 0.0 0.0102411434 0.0472654663 0.0 0.0104563832 0.0476586856 0.0 0.0107064871 0.0480307005 0.0 0.0109893847 0.0483784303 0.0 0.0113027301 0.0486989953 0.0 0.0116439275 0.0489897393 0.0 0.0120101506 0.0492482521 0.0 0.012398364 0.0494723916 0.0 0.0128053501 0.049660299 0.0 0.0132277375 0.0498104207 0.0 0.0136620263 0.0499215089 0.0 0.0141046178 0.049992647 0.0 0.0145518444 0.0500232428 0.0 0.0149999997 0.0506606586 0.0 0.0149999997 0.0513082705 0.0 0.0149999997 0.0519558825 0.0 0.0149999997 0.0526034944 0.0 0.0149999997 0.05325111 0.0 0.0149999997 0.0538987219 0.0 0.0149999997 0.0545463338 0.0 0.0149999997 0.0551939458 0.0 0.0149999997 0.0558415577 0.0 0.0149999997 0.0564891733 0.0 0.0149999997 0.0571367852 0.0 0.0149999997 0.0577843972 0.0 0.0149999997 0.0584320091 0.0 0.0149999997 0.059079621 0.0 0.0131249996 0.0599999987 0.0 0.0112500004 0.0599999987 0.0 0.00937500037 0.0599999987 0.0 0.00749999983 0.0599999987 0.0 0.00562500022 0.0599999987 0.0 0.00374999992 0.0599999987 0.0 0.00187499996 0.0599999987 0.0 0.0 0.0587583333 0.0 0.0 0.057516668 0.0 0.0 0.0562749989 0.0 0.0 0.0550333336 0.0 0.0 0.0537916683 0.0 0.0 0.0525499992 0.0 0.0 0.0513083339 0.0 0.0 0.0500666648 0.0 0.0 0.0488249995 0.0 0.0 0.0475833341 0.0 0.0 0.0463416651 0.0 0.0195713751 0.0446894132 0.0 0.0195200555 0.0442816839 0.0 0.0194349196 0.0438796543 0.0 0.0193165597 0.0434861258 0.0 0.0191658027 0.0431038328 0.0 0.0189836938 0.0427354388 0.0 0.0187715068 0.0423835143 0.0 0.0185307153 0.0420505032 0.0 0.0182629973 0.0417387299 0.0 0.0179702155 0.0414503627 0.0 0.0176544115 0.041187413 0.0 0.0173177831 0.0409517065 0.0 0.0169626754 0.0407448858 0.0 0.0165915582 0.0405683964 0.0 0.0162070207 0.040423464 0.0 0.0158117376 0.0403110944 0.0 0.0154084601 0.0402320772 0.0 0.0168750007 0.0299999993 0.0 0.0187500007 0.0299999993 0.0 0.0206250008 0.0299999993 0.0 0.0225000009 0.0299999993 0.0 0.0243749991 0.0299999993 0.0 0.0262499992 0.0299999993 0.0 0.0281249993 0.0299999993 0.0 0.0299999993 0.0312583335 0.0 0.0299999993 0.0325166658 0.0 0.0299999993 0.0337750018 0.0 0.0299999993 0.035033334 0.0 0.0299999993 0.0362916663 0.0 0.0299999993 0.0375499986 0.0 0.0299999993 0.0388083346 0.0 0.0299999993 0.0400666669 0.0 0.0299999993 0.0413249992 0.0 0.0299999993 0.0425833352 0.0 0.0299999993 0.0438416675 0.0 0.0290404987 0.0450999998 0.0 0.0283653568 0.0450999998 0.0 0.0276902169 0.0450999998 0.0 0.0270150751 0.0450999998 0.0 0.0263399333 0.0450999998 0.0 0.0256647933 0.0450999998 0.0 0.0249896515 0.0450999998 0.0 0.0243145097 0.0450999998 0.0 0.0236393698 0.0450999998 0.0 0.0229642279 0.0450999998 0.0 0.0222890861 0.0450999998 0.0 0.0216139443 0.0450999998 0.0 0.0209388044 0.0450999998 0.0 0.0202636626 0.0450999998 0.0 0.0281249993 0.0599999987 0.0 0.0262499992 0.0599999987 0.0 0.0243749991 0.0599999987 0.0 0.0225000009 0.0599999987 0.0 0.0206250008 0.0599999987 0.0 0.0187500007 0.0599999987 0.0 0.0168750007 0.0599999987 0.0 0.0154084601 0.049967926 0.0 0.0158117376 0.0498889051 0.0 0.0162070207 0.0497765355 0.0 0.0165915582 0.0496316031 0.0 0.0169626754 0.0494551137 0.0 0.0173177831 0.049248293 0.0 0.0176544115 0.0490125902 0.0 0.0179702155 0.0487496369 0.0 0.0182629973 0.0484612696 0.0 0.0185307153 0.0481494963 0.0 0.0187715068 0.0478164889 0.0 0.0189836938 0.0474645607 0.0 0.0191658027 0.0470961705 0.0 0.0193165597 0.0467138775 0.0 0.0194349196 0.0463203453 0.0 0.0195200555 0.0459183156 0.0 0.0195713751 0.0455105864 0.0 0.0299999993 0.0463416651 0.0 0.0299999993 0.0475833341 0.0 0.0299999993 0.0488249995 0.0 0.0299999993 0.0500666648 0.0 0.0299999993 0.0513083339 0.0 0.0299999993 0.0525499992 0.0 0.0299999993 0.0537916683 0.0 0.0299999993 0.0550333336 0.0 0.0299999993 0.0562749989 0.0 0.0299999993 0.057516668 0.0 0.0299999993 0.0587583333 0.0 0.0 0.0270000007 0.0 0.0 0.0240000002 0.0 0.0 0.0209999997 0.0 0.0 0.0179999992 0.0 0.0 0.0149999997 0.0 0.0 0.0120000001 0.0 0.0 0.00899999961 0.0 0.0 0.00600000005 0.0 0.0 0.00300000003 0.0 0.00187499996 0.0 0.0 0.00374999992 0.0 0.0 0.00562500022 0.0 0.0 0.00749999983 0.0 0.0 0.00937500037 0.0 0.0 0.0112500004 0.0 0.0 0.0131249996 0.0 0.0 0.0149999997 0.0 0.0 0.0168750007 0.0 0.0 0.0187500007 0.0 0.0 0.0206250008 0.0 0.0 0.0225000009 0.0 0.0 0.0243749991 0.0 0.0 0.0262499992 0.0 0.0 0.0281249993 0.0 0.0 0.0299999993 0.00300000003 0.0 0.0299999993 0.00600000005 0.0 0.0299999993 0.00899999961 0.0 0.0299999993 0.0120000001 0.0 0.0299999993 0.0149999997 0.0 0.0299999993 0.0179999992 0.0 0.0299999993 0.0209999997 0.0 0.0299999993 0.0240000002 0.0 0.0299999993 0.0270000007 0.0 0.0299999993 0.063000001 0.0 0.0299999993 0.0659999996 0.0 0.0299999993 0.0689999983 0.0 0.0299999993 0.0719999969 0.0 0.0299999993 0.075000003 0.0 0.0299999993 0.0780000016 0.0 0.0299999993 0.0810000002 0.0 0.0299999993 0.0839999989 0.0 0.0299999993 0.0869999975 0.0 0.0281249993 0.0900000036 0.0 0.0262499992 0.0900000036 0.0 0.0243749991 0.0900000036 0.0 0.0225000009 0.0900000036 0.0 0.0206250008 0.0900000036 0.0 0.0187500007 0.0900000036 0.0 0.0168750007 0.0900000036 0.0 0.0149999997 0.0900000036 0.0 0.0131249996 0.0900000036 0.0 0.0112500004 0.0900000036 0.0 0.00937500037 0.0900000036 0.0 0.00749999983 0.0900000036 0.0 0.00562500022 0.0900000036 0.0 0.00374999992 0.0900000036 0.0 0.00187499996 0.0900000036 0.0 0.0 0.0869999975 0.0 0.0 0.0839999989 0.0 0.0 0.0810000002 0.0 0.0 0.0780000016 0.0 0.0 0.075000003 0.0 0.0 0.0719999969 0.0 0.0 0.0689999983 0.0 0.0 0.0659999996 0.0 0.0 0.063000001 0.0 0.00240605418 0.0317476094 0.0 0.0132285897 0.0308372527 0.0 0.0114639541 0.0308285281 0.0 0.00970989279 0.0308664478 0.0 0.00796741433 0.030946292 0.0 0.00622726884 0.0310834199 0.0 0.00444168784 0.0313186944 0.0 0.0115238708 0.0404538177 0.0 0.0110589247 0.0399643853 0.0 0.0105802957 0.0394543298 0.0 0.0100896806 0.0389274582 0.0 0.00958756451 0.0383866653 0.0 0.00907252356 0.0378334895 0.0 0.00854044221 0.0372676216 0.0 0.00798357651 0.0366861634 0.0 0.00738931261 0.0360825956 0.0 0.00673822826 0.0354451761 0.0 0.00600026548 0.0347540006 0.0 0.00512524834 0.0339741185 0.0 0.00401390065 0.0330347866 0.0 0.000793838175 0.0438955426 0.0 0.000772442494 0.0426918976 0.0 0.000783006602 0.0414899141 0.0 0.000811753387 0.0402907245 0.0 0.000856733182 0.0390956625 0.0 0.000921554572 0.037906155 0.0 0.00101479655 0.0367233306 0.0 0.00115271518 0.0355465077 0.0 0.00136729016 0.0343677737 0.0 0.00172855402 0.0331514254 0.0 0.0133339632 0.0315873995 0.0 0.0134397261 0.0323022977 0.0 0.0135442559 0.032998085 0.0 0.0136464294 0.0336812399 0.0 0.013745822 0.0343553573 0.0 0.013842525 0.0350228548 0.0 0.0139368745 0.0356853306 0.0 0.0140292263 0.0363436677 0.0 0.0141198216 0.0369979888 0.0 0.0142087657 0.0376475193 0.0 0.0142960874 0.0382902175 0.0 0.0143820234 0.0389216021 0.0 0.0144678745 0.0395311117 0.0 0.0116815548 0.0316202343 0.0 0.011899055 0.0323765688 0.0 0.0121123437 0.033103589 0.0 0.0123189483 0.0338073969 0.0 0.0125182495 0.0344934613 0.0 0.0127108386 0.0351662561 0.0 0.0128977867 0.0358290039 0.0 0.0130801173 0.0364835784 0.0 0.0132585336 0.0371304527 0.0 0.0134333326 0.0377685912 0.0 0.0136044715 0.0383952036 0.0 0.0137717454 0.0390052013 0.0 0.0139350798 0.0395906046 0.0 0.0100520272 0.0317044854 0.0 0.010392216 0.0325013697 0.0 0.0107216369 0.0332574546 0.0 0.01103618 0.0339790136 0.0 0.0113357538 0.0346737355 0.0 0.0116223767 0.0353484601 0.0 0.011898635 0.0360082686 0.0 0.0121667851 0.0366562307 0.0 0.0124283545 0.03
[...]
<PointData>
<DataArray Name="displ" NumberOfComponents="3" format="ascii" type="Float32">-4.695303806574465e-05 0.0005574810880677742 0.0 -5.552972054635285e-05 0.0005749472730935656 0.0 -1.1562595324133071e-05 0.0007174956489104664 0.0 -5.423232709724069e-06 0.0007121229116562622 0.0 -2.8981248878041544e-05 0.0005945973349915676 0.0 -6.635801719713903e-05 0.0008661780858966658 0.0 -6.966597750931647e-05 0.0008835378582495914 0.0 -5.7874147147908016e-05 0.0008289539851898199 0.0 -6.647469641681765e-05 0.0006187097558975616 0.0 -0.00011154941798716639 0.0007324947215939135 0.0 -0.00010300134738548842 0.0007238592018320391 0.0 -8.581864797705321e-05 0.0008441753272352162 0.0 -3.535060588045489e-06 0.00041568091182873614 0.0 -3.6931652000154844e-05 0.0004319714293959943 0.0 -0.0001010901026648229 0.0010358519933670977 0.0 -6.578535134655277e-05 0.0010253301267181283 0.0 -2.986038727692189e-05 0.0005934022418965327 0.0 -3.2734663698499746e-05 0.0005909218602403642 0.0 -3.64241563033441e-05 0.000586277969552212 0.0 -3.978435485761843e-05 0.000579382705244659 0.0 -4.183986575264352e-05 0.000570450533138347 0.0 -4.426316897715692e-05 0.0005617272348452153 0.0 -4.676883878539381e-05 0.0005570824013610513 0.0 -4.8288864814976754e-05 0.0005601042789990594 0.0 -4.900429599455445e-05 0.0005614608375052693 0.0 -4.9557186961924756e-05 0.0005632147598942819 0.0 -5.015008493619683e-05 0.0005652586317378705 0.0 -5.072668733356708e-05 0.0005672148187618927 0.0 -5.12468656027427e-05 0.0005685416662079165 0.0 -5.13038596221121e-05 0.0005693335842566209 0.0 -5.158115234511831e-05 0.0005702388014426494 0.0 -5.15205073786183e-05 0.0005712918792684796 0.0 -5.1712903970740665e-05 0.0005721795910964688 0.0 -5.282956654482351e-05 0.0005731943501178295 0.0 -5.325679879086239e-05 0.0005740411675677565 0.0 -5.40348827907922e-05 0.0005745919251937602 0.0 -5.4705809436126245e-05 0.0005749664380537154 0.0 -5.297090181087552e-05 0.0005746825267626803 0.0 -5.047372041652547e-05 0.0005752010865021271 0.0 -4.770267366766814e-05 0.0005764530801793503 0.0 -4.4905596143772365e-05 0.000578573727740955 0.0 -4.2293111604262056e-05 0.0005828612527336002 0.0 -3.93477456641477e-05 0.0005887920201183106 0.0 -3.582133413565363e-05 0.0005947903623582853 0.0 -3.185176323461273e-05 0.000602359127373112 0.0 -2.8615295848595618e-05 0.0006121136115980178 0.0 -2.5616102423854917e-05 0.0006222461321735188 0.0 -2.28236163590999e-05 0.0006326581718408855 0.0 -2.0655492655417785e-05 0.0006440134503798267 0.0 -1.8688186455358096e-05 0.0006558582737751001 0.0 -1.707977194330104e-05 0.0006684088027496129 0.0 -1.5096527388556662e-05 0.0006812043409621583 0.0 -1.3785972160911111e-05 0.000693482024262988 0.0 -1.2805108839659797e-05 0.0007055336915068764 0.0 -1.31661549493751e-05 0.00071698579141737 0.0 -1.3386751550093751e-05 0.0007166142563473561 0.0 -1.3077231772897522e-05 0.0007162335311774277 0.0 -1.2247289885263105e-05 0.0007155602576625512 0.0 -1.1826762151344343e-05 0.0007153001290268065 0.0 -1.1777112730722299e-05 0.0007146736733229132 0.0 -1.1266998747340014e-05 0.0007142360445931923 0.0 -1.0133199919183904e-05 0.0007138160120742573 0.0 -9.522228407731052e-06 0.0007132769906859343 0.0 -9.057619969785184e-06 0.0007128009610705272 0.0 -8.34593222312856e-06 0.0007126355821608929 0.0 -7.624599952377178e-06 0.000712170728054658 0.0 -6.780821487117087e-06 0.0007122036983384127 0.0 -6.18134316648902e-06 0.0007117687424240256 0.0 -5.3513963909041305e-06 0.0007027785307882086 0.0 -6.9031512515712125e-06 0.0006936292628248509 0.0 -9.426170071561586e-06 0.0006844189396365792 0.0 -1.4761909586334593e-05 0.0006749826564150694 0.0 -1.9502272760399764e-05 0.0006654999183778051 0.0 -2.3656930332113086e-05 0.0006551938551172462 0.0 -2.6240204330515733e-05 0.0006449690276924551 0.0 -2.865490176166077e-05 0.0006346332883373978 0.0 -2.8908694627569428e-05 0.000624479519358294 0.0 -2.9150479212593216e-05 0.0006146542780859688 0.0 -2.9659661676660313e-05 0.0006044402943212637 0.0 -1.1912664263103678e-05 0.0007300220557218881 0.0 -1.4236629213383183e-05 0.0007424430075354587 0.0 -1.6670859095987835e-05 0.0007543654313101647 0.0 -1.9685331683329293e-05 0.0007660438857291132 0.0 -2.3936669104584712e-05 0.0007771242385900304 0.0 -2.7646901289451315e-05 0.0007891798490074818 0.0 -3.2078959235898395e-05 0.0008016626631004393 0.0 -3.60666708858859e-05 0.0008139311701165219 0.0 -3.975538339283731e-05 0.0008241199251522041 0.0 -4.293805052833071e-05 0.0008337252306736212 0.0 -4.642523680014716e-05 0.0008416892282861871 0.0 -4.987408835483817e-05 0.0008491102276735552 0.0 -5.3219864897734554e-05 0.0008553066145397091 0.0 -5.650332579628423e-05 0.0008601658064168257 0.0 -5.9084223112474654e-05 0.0008634201806286469 0.0 -6.166092611362421e-05 0.0008657795457041568 0.0 -6.399161400605481e-05 0.0008667489380298533 0.0 -6.613088405027292e-05 0.0008663271740765875 0.0 -6.575860407543978e-05 0.0008670853505951276 0.0 -6.569202909881032e-05 0.000867450502714558 0.0 -6.589363950514234e-05 0.0008679019639451332 0.0 -6.629702198087952e-05 0.0008683836607129601 0.0 -6.70003696531422e-05 0.0008692085128537846 0.0 -6.71064682683945e-05 0.0008704881207189599 0.0 -6.736566836154442e-05 0.0008718348632913216 0.0 -6.779465645485377e-05 0.0008731617938954416 0.0 -6.84003650948242e-05 0.0008747483798000804 0.0 -6.878066836818087e-05 0.0008762684055951642 0.0 -6.8835741080179e-05 0.0008777421077897829 0.0 -6.916773044611104e-05 0.0008799772754810985 0.0 -6.922699217543762e-05 0.0008818230601079747 0.0 -6.978970945433414e-05 0.0008815527558520786 0.0 -6.90065156880946e-05 0.0008752588897814542 0.0 -6.841386039322934e-05 0.0008638093375140374 0.0 -6.621195867258743e-05 0.000852234121247628 0.0 -6.417983714020587e-05 0.00084270946181172 0.0 -6.199818373681501e-05 0.0008361768898790026 0.0 -5.858224215067215e-05 0.0008308440827763682 0.0 -5.564638129039978e-05 0.0008183456453510622 0.0 -5.33040364088446e-05 0.0008092174401517669 0.0 -5.216271613199342e-05 0.0007983680275807444 0.0 -4.903248826548483e-05 0.0007890383471560779 0.0 -4.4580847785851677e-05 0.0007785533759652702 0.0 -3.916899785139286e-05 0.0007686526899620532 0.0 -3.282821891672328e-05 0.0007580775139118911 0.0 -2.5202735149699254e-05 0.0007478308128989974 0.0 -1.8048931264108736e-05 0.0007384074711745807 0.0 -1.2045609531449264e-05 0.0007287359777123309 0.0 -7.991409365978866e-06 0.0007209096210891101 0.0 -0.00010218159001914753 0.0007150253240897839 0.0 -0.00010051511088720375 0.000705050970553404 0.0 -9.940644741881419e-05 0.000694609455732066 0.0 -9.706920100125525e-05 0.0006845059492589136 0.0 -9.524168272808356e-05 0.0006735907749033411 0.0 -9.345997602224866e-05 0.0006618589338400544 0.0 -9.054596492728557e-05 0.0006507170733080975 0.0 -8.639540168166989e-05 0.0006403607363371996 0.0 -8.330998274969343e-05 0.0006304365367414221 0.0 -7.978318918963846e-05 0.0006203532659666959 0.0 -7.629045014747167e-05 0.0006100082398216761 0.0 -7.29816731935531e-05 0.0006011475714646029 0.0 -6.983173784347617e-05 0.0005942391542181616 0.0 -6.698401332529183e-05 0.0005877715576789014 0.0 -6.363442568663253e-05 0.000582511079104902 0.0 -6.089783657113089e-05 0.0005789440042132252 0.0 -5.784370882984873e-05 0.0005764054631877244 0.0 -4.955298303076942e-05 0.0005632259271199072 0.0 -5.1547979669393995e-05 0.000572597869210472 0.0 -5.341616010329675e-05 0.0005857214210935035 0.0 -5.632011444356272e-05 0.000597285597455468 0.0 -5.918774153964379e-05 0.0006057662012964847 0.0 -6.136683486809009e-05 0.0006120763295438791 0.0 -6.358485078716987e-05 0.000617083655372227 0.0 -6.751876000589338e-05 0.0006281845491905492 0.0 -6.961103507709744e-05 0.0006382005017250852 0.0 -7.178954258597143e-05 0.0006478205264970179 0.0 -7.525943442633732e-05 0.0006582201556390619 0.0 -7.933543607144696e-05 0.000668340083036081 0.0 -8.359588177990532e-05 0.0006786642344307688 0.0 -8.803200477060065e-05 0.0006879739907230937 0.0 -9.474865362232382e-05 0.0006976109625302082 0.0 -9.99423513052572e-05 0.0007058344117723354 0.0 -0.00010485484577163374 0.0007145090732421709 0.0 -0.00010925813410322069 0.0007233733021271481 0.0 -0.000110806853159327 0.0007323477077525879 0.0 -0.00011013536770259235 0.0007318042279149182 0.0 -0.00010935879585476578 0.0007310046308442816 0.0 -0.0001087113460033927 0.0007302425133150248 0.0 -0.0001079168003397503 0.0007298856513600523 0.0 -0.00010722226441002988 0.000729349755997769 0.0 -0.00010641051907228279 0.0007288440770071558 0.0 -0.00010542696962500988 0.0007281197423865752 0.0 -0.00010472249247407147 0.0007271511194982107 0.0 -0.00010442142649227888 0.000726718720471868 0.0 -0.00010433708293689848 0.0007261478396100436 0.0 -0.00010388059290600193 0.0007257336246092625 0.0 -0.00010309713846640851 0.0007247224382631126 0.0 -0.00010239508065919103 0.0007241877668059733 0.0 -8.39612666579918e-05 0.0008444440375567884 0.0 -8.126202852949339e-05 0.0008460226435597579 0.0 -7.873778223036567e-05 0.0008493413133881935 0.0 -7.589990500600418e-05 0.0008549942538550876 0.0 -7.381660604928866e-05 0.0008629724418724733 0.0 -7.198439903067465e-05 0.0008725714068596712 0.0 -7.046704929578877e-05 0.0008797759595361928 0.0 -6.834783088504134e-05 0.000865036886981936 0.0 -7.033439576853434e-05 0.0008629028326179348 0.0 -7.292614876077265e-05 0.0008594496737074862 0.0 -7.525729865591426e-05 0.0008540739404254705 0.0 -7.787139994418095e-05 0.0008477941451597919 0.0 -8.011239604510704e-05 0.0008397133541338765 0.0 -8.272782536287311e-05 0.0008313885280786612 0.0 -8.542338653696114e-05 0.0008230237425257726 0.0 -8.844698680884193e-05 0.0008130690916304302 0.0 -9.095847356065237e-05 0.0008034207922148751 0.0 -9.379437080879886e-05 0.00079337693584989 0.0 -9.683016519541951e-05 0.0007833665678158814 0.0 -9.934644007089027e-05 0.0007732404136767969 0.0 -0.00010012703350973242 0.0007615947979940748 0.0 -0.00010092381868063302 0.0007510649293063096 0.0 -0.00010158824378098694 0.0007415486758156371 0.0 -0.00010245780489318739 0.0007325907093010597 0.0 -0.00011184260411261759 0.000740991195579941 0.0 -0.0001106474464691014 0.0007496035634788393 0.0 -0.00010649278834571152 0.0007582330524272581 0.0 -0.00010237267327877048 0.0007670981980972292 0.0 -9.830219670080963e-05 0.0007762104490539716 0.0 -9.404471901373575e-05 0.0007860699446678509 0.0 -9.067943965556666e-05 0.0007960130268917063 0.0 -8.871050485149268e-05 0.000806113646512073 0.0 -8.790403325762226e-05 0.0008158915154312514 0.0 -8.625132311537198e-05 0.0008253385943502387 0.0 -8.602677730701118e-05 0.0008346990049900944 0.0 -2.665899921841545e-05 0.0005717237140579827 0.0 -2.3712036647440534e-05 0.0005510419528282259 0.0 -1.907046413421076e-05 0.0005313133913797853 0.0 -1.6056534557565727e-05 0.0005129763647344104 0.0 -1.3153834844571089e-05 0.000493759237386346 0.0 -1.123517443786935e-05 0.000476862298664297 0.0 -9.370956615015734e-06 0.0004597669069314722 0.0 -7.668742282870164e-06 0.00044433730710608367 0.0 -5.023150127639135e-06 0.00042666675684958325 0.0 -4.560015721561752e-06 0.0004167784714587179 0.0 -7.236068137984179e-06 0.00041747950516018024 0.0 -1.0097925975977683e-05 0.0004183927110250647 0.0 -1.2734142828348444e-05 0.00041763397520365155 0.0 -1.4652199859263855e-05 0.0004171670814192167 0.0 -1.6479035782198726e-05 0.0004170016307115775 0.0 -1.9044776765400793e-05 0.0004177033898450133 0.0 -2.094358956222983e-05 0.0004171611684658749 0.0 -2.300168325661602e-05 0.00041812776674198714 0.0 -2.5564754722911094e-05 0.0004200269838653436 0.0 -2.6984287253508026e-05 0.000420999859668553 0.0 -2.835082989393425e-05 0.00042383700881664136 0.0 -3.123524775703076e-05 0.000425925618233441 0.0 -3.3006507651136204e-05 0.00042877883838263257 0.0 -3.333251385650426e-05 0.00043065849753639706 0.0 -3.757456938175908e-05 0.00044289612511715966 0.0 -4.015449689390373e-05 0.00046016635471828797 0.0 -4.19130534663249e-05 0.00047648020120438436 0.0 -4.389621111858472e-05 0.0004954034467812883 0.0 -4.579157867430967e-05 0.0005131713832939496 0.0 -5.023849816442773e-05 0.0005346589119546321 0.0 -5.486278962960332e-05 0.0005537166133613723 0.0 -5.868795038665148e-05 0.0005743835078778182 0.0 -6.209213747725376e-05 0.0005955526351199074 0.0 -8.516632558902834e-05 0.0008656709062901897 0.0 -8.707083906438872e-05 0.0008858728120472206 0.0 -8.745885915923254e-05 0.0009052725526549272 0.0 -8.88654588083525e-05 0.0009261081369876531 0.0 -8.99817835542016e-05 0.0009447092678646446 0.0 -9.216475395642704e-05 0.0009642208084837085 0.0 -9.40751056332392e-05 0.0009836869408596089 0.0 -9.653171336509737e-05 0.0010042873405350992 0.0 -9.97511860923541e-05 0.0010240432822868353 0.0 -0.0001005046484718161 0.0010375041388182827 0.0 -9.824457001664821e-05 0.0010379383116419678 0.0 -9.605176984935566e-05 0.001038291398895043 0.0 -9.311304227338466e-05 0.0010384654571415212 0.0 -9.061772009880623e-05 0.0010376876037976718 0.0 -8.801127156438722e-05 0.001037672509817253 0.0 -8.618238178267842e-05 0.0010365412262938127 0.0 -8.269539820413757e-05 0.0010344763604523766 0.0 -7.974859139683887e-05 0.0010338290212881613 0.0 -7.807236657142272e-05 0.001032295185076226 0.0 -7.570441913351787e-05 0.0010313956575506568 0.0 -7.334272951889733e-05 0.0010295237694062354 0.0 -7.242566811813246e-05 0.0010288656272008346 0.0 -6.976783529568989e-05 0.0010274431411440572 0.0 -6.716392910372703e-05 0.0010260632520201654 0.0 -6.590141445973782e-05 0.001012984283042512 0.0 -6.478739865096184e-05 0.0009925826625732184 0.0 -6.467672297502834e-05 0.0009753925016682818 0.0 -6.413843139156516e-05 0.0009575357051939919 0.0 -6.430535946582039e-05 0.000938062331253419 0.0 -6.280023191317648e-05 0.0009176813997148012 0.0 -6.256640085206746e-05 0.0008954812656827493 0.0 -6.10956671863267e-05 0.0008732829616418277 0.0 -6.018309763258898e-05 0.0008505180936749808 0.0 -3.208579702611144e-05 0.0006056546844851868 0.0 -4.6375793512065784e-05 0.0005597944134537773 0.0 -4.512584675427433e-05 0.000564740106614589 0.0 -4.355979434071872e-05 0.00057344256242772 0.0 -4.074372554334643e-05 0.0005835041883870233 0.0 -3.826679549684454e-05 0.0005923094924119413 0.0 -3.576873783694806e-05 0.0005986382768449409 0.0 -3.565545668271466e-05 0.0005980373320543141 0.0 -3.695553777222774e-05 0.0006023885681942227 0.0 -3.8848812896824653e-05 0.0006065406091162466 0.0 -4.003667859454723e-05 0.0006115613955065801 0.0 -4.054257158907628e-05 0.0006165348082456717 0.0 -4.073882604748285e-05 0.0006203619339278929 0.0 -4.0605790406653155e-05 0.0006222389952903568 0.0 -4.054571957925076e-05 0.0006228843885171631 0.0 -4.020579570545274e-05 0.000622713933072943 0.0 -3.9896021671121344e-05 0.0006215906225905533 0.0 -3.872523633632689e-05 0.0006197341254876328 0.0 -3.711386297212492e-05 0.0006168190020104449 0.0 -3.5111619784642685e-05 0.0006125465473767304 0.0 -5.7463818499887384e-06 0.0007026839660315863 0.0 -7.1840775094903194e-06 0.0006938980961560358 0.0 -1.0135870088907651e-05 0.0006851864074393202 0.0 -1.4558490984596216e-05 0.0006758667387162887 0.0 -1.8901433222810616e-05 0.0006667445150289976 0.0 -2.280252221766806e-05 0.0006572521335671453 0.0 -2.6412082036512234e-05 0.0006470137760842064 0.0 -2.825932813265929e-05 0.0006379857685532688 0.0 -2.9630507766355874e-05 0.0006281804307592694 0.0 -3.122923429029974e-05 0.000618105729235105 0.0 -4.725866000009442e-05 0.0005620360675813356 0.0 -4.853630598806735e-05 0.0005634193274477642 0.0 -4.925834406106039e-05 0.0005649370636383289 0.0 -4.965000837958483e-05 0.0005663882619266656 0.0 -4.98194903198729e-05 0.0005680388413872883 0.0 -5.0319535100899616e-05 0.0005693711017112059 0.0 -5.080671981867422e-05 0.0005700481163370432 0.0 -5.067720339300736e-05 0.0005708987815481239 0.0 -5.090843407476789e-05 0.0005717046169472757 0.0 -5.13918766182742e-05 0.0005724461159692899 0.0 -5.161042717243628e-05 0.0005733035580480434 0.0 -5.2186766335441805e-05 0.0005733012055862238 0.0 -5.258334815060905e-05 0.0005743402765721843 0.0 -4.580926671665799e-05 0.0005665263548620632 0.0 -4.6932430970039756e-05 0.0005680043125457889 0.0 -4.752497575443577e-05 0.000569168842633235 0.0 -4.7947820474082447e-05 0.000570465196706615 0.0 -4.8419378365833976e-05 0.0005716202316666489 0.0 -4.8982823378601275e-05 0.0005723828299616206 0.0 -4.9652140601091464e-05 0.0005727666285842821 0.0 -5.013097112912941e-05 0.0005732387921051562 0.0 -4.997140138362586e-05 0.0005735284709333491 0.0 -4.963213164899541e-05 0.0005739083437721737 0.0 -4.961190827039948e-05 0.0005744697626478584 0.0 -4.9679107570274096e-05 0.0005743148659184858 0.0 -4.9895939615342824e-05 0.0005748196610946059 0.0 -4.444011886478162e-05 0.000575486036060885 0.0 -4.5507138018536314e-05 0.0005768424215772285 0.0 -4.587071024214762e-05 0.0005779694893595469 0.0 -4.646371238995875e-05 0.0005781669180220812 0.0 -4.732090226937959e-05 0.0005784974411976501 0.0 -4.7857516025473585e-05 0.0005790754654444583 0.0 -4.8328019133702464e-05 0.0005787544544660286 0.0 -4.8747511383429756e-05 0.0005781703714262575 0.0 -4.882883977304942e-05 0.0005779751481644034 0.0 -4.80796041656396e-05 0.0005776848361532622 0.0 -4.789651777586857e-05 0.0005772986082041259 0.0 -4.7332762576586824e-05 0.0005766614033370908 0.0 -4.7115131702477366e-05 0.0005764621359367209 0.0 -4.217490329713375e-05 0.0005863549485090816 0.0 -4.347622188726031e-05 0.0005880886095962123 0.0 -4.432365067657914e-05 0.0005886351020226273 0.0 -4.491674135248969e-05 0.0005891092284519193 0.0 -4.565795550049858e-05 0.0005890878129236187 0.0 -4.652797616149109e-05 0.0005886726428993869 0.0 -4.690199733678788e-05 0.0005876929476912205 0.0 -4.6779789359777765e-05 0.0005860109621561657 0.0 -4.6948647677615836e-05 0.0005849440656192194 0.0 -4.691828691304993e-05 0.0005836952377089958 0.0 -4.616000549564999e-05 0.0005819565500303692 0.0 -4.523254065877908e-05 0.0005807485930837642 0.0 -4.448013227264511e-05 0.0005798596738497004 0.0 -4.0352123396062996e-05 0.0005965438528067316 0.0 -4.1419970241328744e-05 0.0005993972051448796 0.0 -4.253072515712476e-05 0.0006008544115085298 0.0 -4.3543661317042116e-05 0.0006010262916690443 0.0 -4.429905526544846e-05 0.0006009425376249738 0.0 -4.491040894555737e-05 0.0006005943504614934 0.0 -4.517841539324163e-05 0.0005990227446139203 0.0 -4.520418107537781e-05 0.0005963517460863479 0.0 -4.5348789396320135e-05 0.0005939572770134326 0.0 -4.519131762712319e-05 0.0005913576441825253 0.0 -4.432223572044453e-05 0.0005885573899346558 0.0 -4.27096933584872e-05 0.0005863444843237225 0.0 -4.195050139841545e-05 0.0005845600650827155 0.0 -3.789122834701126e-05 0.0006046113609466558 0.0 -3.935441231434101e-05 0.0006089590189914041 0.0 -4.056408256866687e-05 0.0006114556329110368 0.0 -4.192233979389848e-05 0.0006125298614029071 0.0 -4.251611401543975e-05 0.0006127433635525767 0.0 -4.2855962520097536e-05 0.0006124993523118844 0.0 -4.313052530230336e-05 0.0006107884087032649 0.0 -4.340979433217163e-05 0.0006083128579414121 0.0 -4.357768239767119e-05 0.0006047960975893663 0.0 -4.252730235915781e-05 0.0006009200179907005 0.0 -4.1366178787364264e-05 0.0005969646873066996 0.0 -4.002757340420962e-05 0.0005936127765093501 0.0 -3.909251444533189e-05 0.0005909677829149857 0.0 -3.198374821600626e-05 0.0006062287994885671 0.0 -2.8267334641516868e-05 0.0006155027858237798 0.0 -2.508806158612389e-05 0.0006254491826711641 0.0 -2.2575783702048613e-05 0.0006353350895487318 0.0 -2.0511382328055294e-05 0.0006466727597160483 0.0 -1.7595549407689966e-05 0.0006578139639951936 0.0 -1.597324007633595e-05 0.0006706388569063878 0.0 -1.4383269411573863e-05 0.0006829161698287285 0.0 -1.35261155459431e-05 0.0006948300430323586 0.0 -1.3054541121564033e-05 0.0007062657051748064 0.0 -3.400389440460091e-05 0.0006111754195866654 0.0 -3.0432101252695155e-05 0.0006215337805368408 0.0 -2.650315007213131e-05 0.0006317389920947998 0.0 -2.347759946332123e-05 0.0006427619168413028 0.0 -2.0095735128062722e-05 0.0006538741037732692 0.0 -1.7576433796163344e-05 0.0006645850331087185 0.0 -1.5201462768592348e-05 0.0006752432698094167 0.0 -1.356216130358198e-05 0.0006860025317390412 0.0 -1.3160033958619709e-05 0.0006966248919896934 0.0 -1.