<?xml version="1.0" ?>
<VTKFile byte_order="LittleEndian" type="UnstructuredGrid" version="0.1">
<UnstructuredGrid>
<Piece NumberOfCells="3478" NumberOfPoints="1836">
<Points>
<DataArray NumberOfComponents="3" format="ascii" type="Float32">0.0 0.0 0.0 0.0 30.0 0.0 90.0 0.0 0.0 90.0 30.0 0.0 45.0 14.7 0.0 45.0 19.7 0.0 45.0 9.7 0.0 44.0245483899222 19.60392640201672 0.0 43.08658283818048 19.31939766255888 0.0 42.22214883490896 18.85734806151738 0.0 41.46446609407355 18.23553390593903 0.0 40.84265193849559 17.47785116511045 0.0 40.38060233744971 16.61341716184027 0.0 40.09607359798762 15.67545161009959 0.0 40.0 14.7000000000206 0.0 40.09607359798068 13.72454838993527 0.0 40.38060233743827 12.78658283818735 0.0 40.84265193848201 11.92214883490987 0.0 41.46446609406021 11.16446609407431 0.0 42.22214883489495 10.54265193849198 0.0 43.08658283817165 10.08060233744477 0.0 44.02454838991945 9.79607359798383 0.0 45.97545161007786 9.796073597983295 0.0 46.91341716181914 10.08060233744095 0.0 47.77785116509095 10.54265193848255 0.0 48.53553390592572 11.16446609406025 0.0 49.15734806150372 11.92214883488851 0.0 49.61939766255018 12.78658283815946 0.0 49.90392640201246 13.72454838990077 0.0 50.0 14.69999999997977 0.0 49.90392640201924 15.67545161006509 0.0 49.6193976625616 16.61341716181298 0.0 49.15734806151947 17.47785116508791 0.0 48.53553390594058 18.23553390592489 0.0 47.77785116510518 18.85734806150794 0.0 46.91341716182851 19.31939766255517 0.0 45.97545161008048 19.60392640201618 0.0 0.0 1.499999999999333 0.0 0.0 2.999999999999543 0.0 0.0 4.499999999999284 0.0 0.0 5.999999999997914 0.0 0.0 7.499999999996543 0.0 0.0 8.999999999992466 0.0 0.0 10.49999999998665 0.0 0.0 11.99999999998084 0.0 0.0 13.49999999997503 0.0 0.0 14.99999999996956 0.0 0.0 16.49999999997229 0.0 0.0 17.99999999997536 0.0 0.0 19.49999999997843 0.0 0.0 20.9999999999815 0.0 0.0 22.49999999998457 0.0 0.0 23.99999999998764 0.0 0.0 25.49999999999073 0.0 0.0 26.99999999999382 0.0 0.0 28.49999999999692 0.0 90.0 1.499999999999333 0.0 90.0 2.999999999999543 0.0 90.0 4.499999999999284 0.0 90.0 5.999999999997914 0.0 90.0 7.499999999996543 0.0 90.0 8.999999999992466 0.0 90.0 10.49999999998665 0.0 90.0 11.99999999998084 0.0 90.0 13.49999999997503 0.0 90.0 14.99999999996956 0.0 90.0 16.49999999997229 0.0 90.0 17.99999999997536 0.0 90.0 19.49999999997843 0.0 90.0 20.9999999999815 0.0 90.0 22.49999999998457 0.0 90.0 23.99999999998764 0.0 90.0 25.49999999999073 0.0 90.0 26.99999999999382 0.0 90.0 28.49999999999692 0.0 1.499999999999597 30.0 0.0 2.999999999999036 30.0 0.0 4.499999999998088 30.0 0.0 5.999999999997163 30.0 0.0 7.499999999997185 30.0 0.0 8.999999999997288 30.0 0.0 10.49999999999739 30.0 0.0 11.99999999999602 30.0 0.0 13.49999999999316 30.0 0.0 14.9999999999903 30.0 0.0 16.49999999998744 30.0 0.0 17.99999999998458 30.0 0.0 19.49999999998172 30.0 0.0 20.99999999997887 30.0 0.0 22.49999999997601 30.0 0.0 23.99999999997315 30.0 0.0 25.4999999999703 30.0 0.0 26.99999999996745 30.0 0.0 28.49999999996459 30.0 0.0 29.99999999996174 30.0 0.0 31.49999999995888 30.0 0.0 32.99999999995603 30.0 0.0 34.49999999995318 30.0 0.0 35.99999999995033 30.0 0.0 37.49999999994748 30.0 0.0 38.99999999994462 30.0 0.0 40.49999999994177 30.0 0.0 41.99999999993892 30.0 0.0 43.49999999993607 30.0 0.0 44.99999999993459 30.0 0.0 46.49999999994219 30.0 0.0 47.99999999995118 30.0 0.0 49.49999999996015 30.0 0.0 50.99999999996914 30.0 0.0 52.49999999997812 30.0 0.0 53.99999999998711 30.0 0.0 55.49999999999608 30.0 0.0 57.00000000000507 30.0 0.0 58.50000000001404 30.0 0.0 60.00000000002303 30.0 0.0 61.500000000032 30.0 0.0 63.00000000004099 30.0 0.0 64.50000000004795 30.0 0.0 66.00000000004582 30.0 0.0 67.50000000004296 30.0 0.0 69.00000000004009 30.0 0.0 70.50000000003723 30.0 0.0 72.00000000003436 30.0 0.0 73.5000000000315 30.0 0.0 75.00000000002863 30.0 0.0 76.50000000002578 30.0 0.0 78.00000000002291 30.0 0.0 79.50000000002005 30.0 0.0 81.0000000000172 30.0 0.0 82.50000000001431 30.0 0.0 84.00000000001147 30.0 0.0 85.50000000000858 30.0 0.0 87.00000000000573 30.0 0.0 88.50000000000286 30.0 0.0 1.499999999999597 0.0 0.0 2.999999999999036 0.0 0.0 4.499999999998088 0.0 0.0 5.999999999997163 0.0 0.0 7.499999999997185 0.0 0.0 8.999999999997288 0.0 0.0 10.49999999999739 0.0 0.0 11.99999999999602 0.0 0.0 13.49999999999316 0.0 0.0 14.9999999999903 0.0 0.0 16.49999999998744 0.0 0.0 17.99999999998458 0.0 0.0 19.49999999998172 0.0 0.0 20.99999999997887 0.0 0.0 22.49999999997601 0.0 0.0 23.99999999997315 0.0 0.0 25.4999999999703 0.0 0.0 26.99999999996745 0.0 0.0 28.49999999996459 0.0 0.0 29.99999999996174 0.0 0.0 31.49999999995888 0.0 0.0 32.99999999995603 0.0 0.0 34.49999999995318 0.0 0.0 35.99999999995033 0.0 0.0 37.49999999994748 0.0 0.0 38.99999999994462 0.0 0.0 40.49999999994177 0.0 0.0 41.99999999993892 0.0 0.0 43.49999999993607 0.0 0.0 44.99999999993459 0.0 0.0 46.49999999994219 0.0 0.0 47.99999999995118 0.0 0.0 49.49999999996015 0.0 0.0 50.99999999996914 0.0 0.0 52.49999999997812 0.0 0.0 53.99999999998711 0.0 0.0 55.49999999999608 0.0 0.0 57.00000000000507 0.0 0.0 58.50000000001404 0.0 0.0 60.00000000002303 0.0 0.0 61.500000000032 0.0 0.0 63.00000000004099 0.0 0.0 64.50000000004795 0.0 0.0 66.00000000004582 0.0 0.0 67.50000000004296 0.0 0.0 69.00000000004009 0.0 0.0 70.50000000003723 0.0 0.0 72.00000000003436 0.0 0.0 73.5000000000315 0.0 0.0 75.00000000002863 0.0 0.0 76.50000000002578 0.0 0.0 78.00000000002291 0.0 0.0 79.50000000002005 0.0 0.0 81.0000000000172 0.0 0.0 82.50000000001431 0.0 0.0 84.00000000001147 0.0 0.0 85.50000000000858 0.0 0.0 87.00000000000573 0.0 0.0 88.50000000000286 0.0 0.0 63.37364706550937 16.50964628420433 0.0 26.62635293463404 16.50964628433121 0.0 13.41978650690528 13.45950154969383 0.0 76.58021349318176 13.45950154962137 0.0 33.45476071497805 8.290175608698323 0.0 56.54523928495111 8.290175608661723 0.0 56.52897059443286 20.86236316873536 0.0 33.47102940567571 20.86236316876138 0.0 71.2830521058756 21.04460405596809 0.0 18.71694789423233 21.04460405599743 0.0 21.41980901986561 9.070463267320616 0.0 68.58019098027053 9.07046326726413 0.0 80.99914552692991 20.97721309723637 0.0 9.000854473061795 20.97721309727302 0.0 7.870305877421703 8.018059563575596 0.0 82.12969412262107 8.018059563525435 0.0 33.7165245411982 14.65399207417489 0.0 56.28347545881759 14.65399207414136 0.0 39.97305498366637 24.34223222603792 0.0 50.02694501636432 24.34223222603521 0.0 38.06318796926433 6.581870986627434 0.0 51.65683578806563 6.660577520338367 0.0 62.64972062822329 23.28495574336215 0.0 27.35027937196879 23.28495574342431 0.0 14.97502445613706 6.824785268959483 0.0 75.02497554396214 6.824785268919009 0.0 6.787494920844402 14.64311087002373 0.0 83.2125050791834 14.64311087005626 0.0 62.74377049329286 6.199343823534628 0.0 27.25622950671565 6.19934382349436 0.0 45.000000000016 24.81766533538266 0.0 43.95657580818752 4.66610370877416 0.0 20.65769446566512 15.12449163383865 0.0 69.34230553450763 15.12449163379761 0.0 37.96200801440695 20.41720228097835 0.0 52.03799198563937 20.41720228095547 0.0 60.84525610777352 11.56302347148087 0.0 29.15474389221305 11.56302347157453 0.0 13.9479594477568 24.07830472189175 0.0 76.05204055230455 24.07830472189373 0.0 37.10725181280449 10.48234091456723 0.0 52.87039497378214 10.64738567442688 0.0 76.13945330379045 19.16176902849947 0.0 13.86054669631562 19.16176902853507 0.0 47.5363758303687 6.338689435416557 0.0 34.86428980814253 25.34552342098224 0.0 55.13571019192649 25.34552342097093 0.0 22.30941555412428 24.72828550626092 0.0 67.69058444605145 24.72828550626487 0.0 84.713423002924 24.99937419725806 0.0 5.286576997074654 24.99937419725982 0.0 53.00114321705956 17.18011225714096 0.0 36.99885678297024 17.18011225718971 0.0 23.5598838532369 20.42784805271946 0.0 66.44011614689009 20.42784805259263 0.0 19.30012895581989 4.590769543361563 0.0 70.69987104427214 4.590769543316364 0.0 34.65194187852933 4.323942427443631 0.0 55.3509190897658 4.276953815657579 0.0 24.56326495034983 12.51090819943921 0.0 65.43673504967131 12.51090819926273 0.0 4.675281458987522 18.75593683549119 0.0 85.32471854101604 18.75593683552496 0.0 59.27549643767956 17.55657731658075 0.0 30.72450356243039 17.55657731666243 0.0 4.48422503831524 4.681086215913009 0.0 85.51577496171463 4.681086215890073 0.0 17.49653004164637 11.94727187727593 0.0 72.50346995845473 11.94727187724224 0.0 10.98527091569449 4.578615553731414 0.0 79.0147290843752 4.578615553705176 0.0 58.91405463068145 25.62404760730938 0.0 31.08594536941772 25.6240476073746 0.0 85.5241378133564 10.79876961335222 0.0 4.475862186642179 10.79876961333991 0.0 42.66656627406208 22.55964308489288 0.0 47.33343372595118 22.55964308489816 0.0 9.583286029275847 25.4002693669458 0.0 80.41671397074799 25.40026936696242 0.0 53.06845121340182 13.81856388174299 0.0 36.93154878659712 13.81856388180116 0.0 17.8174374277252 25.57763591150952 0.0 72.18256257238082 25.5776359115521 0.0 66.48712173895905 4.220888897947975 0.0 23.51287826110802 4.220888897905488 0.0 59.31833062037198 4.22591876993067 0.0 30.68166937960341 4.225918769883755 0.0 11.77463693523386 9.605550025953741 0.0 78.22536306483727 9.60555002590434 0.0 41.61323298424063 7.118443406710728 0.0 40.49821449791196 3.657232821442271 0.0 10.5266603073137 16.32186666614573 0.0 79.47333969271385 16.32186666603704 0.0 16.67405390020416 15.97604740026929 0.0 73.32594609994788 15.97604740025251 0.0 49.78436784633756 3.517636631289772 0.0 49.88839936442268 8.765969189103764 0.0 60.0639438556624 21.0617009560476 0.0 29.93605614447742 21.06170095609978 0.0 55.93957776705275 11.46129603095351 0.0 34.06042223290302 11.46129603098422 0.0 42.080133866937 26.6941411693382 0.0 47.61442067123723 26.51556330917287 0.0 39.44356817596738 9.167540042382463 0.0 29.86186672815856 8.62859477986549 0.0 60.13813327177503 8.62859477979463 0.0 81.60488436417148 11.7395599460253 0.0 8.395115635915154 11.73955994604578 0.0 56.13971841765213 17.80631872018535 0.0 33.86028158239547 17.80631872019029 0.0 46.635920
[...]
<PointData>
<DataArray Name="displ" NumberOfComponents="3" format="ascii" type="Float32">-1.0300862289325774 -0.06444811630362025 0.0 -1.0492294505966124 -0.10249051143884177 0.0 -0.41227197571391233 -0.0018261417942827768 0.0 -0.42538820508907205 -0.035177849896134594 0.0 -0.9738126036097287 -0.07186860689681406 0.0 -0.7254918506062313 -0.10351629297957197 0.0 -0.7259295848103392 -0.00797953404178167 0.0 -0.7565532706163614 -0.09943973746198814 0.0 -0.7895937306746724 -0.1032109232846757 0.0 -0.8230841331999212 -0.09788504575763501 0.0 -0.8406384615577658 -0.09391796320214804 0.0 -0.8550096473398863 -0.0871703405348002 0.0 -0.8662579627401542 -0.07883556540563279 0.0 -0.869933133519831 -0.06926793804983027 0.0 -0.8740520154020379 -0.06066939834695174 0.0 -0.8703634392457767 -0.05534649980144491 0.0 -0.8636033399007296 -0.0451309837618983 0.0 -0.8533514789134296 -0.03521085596214353 0.0 -0.8420871212288819 -0.02581713663342985 0.0 -0.8271676207115658 -0.01827384411348209 0.0 -0.8029027416679564 -0.012204392074558682 0.0 -0.7666148153320961 -0.008427321069651056 0.0 -0.681358396012754 -0.011029655209099801 0.0 -0.6410170918829404 -0.010799318738967516 0.0 -0.612214652471985 -0.011971501352556141 0.0 -0.598926310409509 -0.015223547701041083 0.0 -0.5838184525760096 -0.025323256865167138 0.0 -0.5772831810631727 -0.03633486572033583 0.0 -0.5746801273603771 -0.04446213066768837 0.0 -0.5718288185987861 -0.053464089037104194 0.0 -0.5730808626974933 -0.06218583005740327 0.0 -0.5801568802865356 -0.07224052112989887 0.0 -0.594483087582089 -0.08092429396941603 0.0 -0.6079416251840863 -0.08900232542810593 0.0 -0.6242697097731069 -0.09758396212227471 0.0 -0.6607911661764421 -0.0982973476979634 0.0 -0.6923056618030398 -0.10037860957076411 0.0 -1.0315544921536204 -0.0647509732120439 0.0 -1.0332562695358158 -0.06678024802088643 0.0 -1.0339484583177918 -0.06977116456164204 0.0 -1.0337456791176012 -0.07100834454830468 0.0 -1.034532830218081 -0.07204629897383558 0.0 -1.0372551128916596 -0.07332498413515846 0.0 -1.0377794530203024 -0.07506916666327866 0.0 -1.0387889301732733 -0.07639424629806972 0.0 -1.0396526297122328 -0.07903548257130572 0.0 -1.0388594820320836 -0.08218132844538265 0.0 -1.0423533880567981 -0.0849314672966023 0.0 -1.0414786355348438 -0.0866066281203453 0.0 -1.0431584402565413 -0.0878103884759635 0.0 -1.0430746316008837 -0.08937611857572403 0.0 -1.0452988983624276 -0.09119160063149119 0.0 -1.0441829640417486 -0.09353671459892604 0.0 -1.0451661903368434 -0.09446338371709664 0.0 -1.0455789628187726 -0.09678163970355758 0.0 -1.0456204832018634 -0.10000176230709557 0.0 -0.41615927445874284 -0.0027033369588630642 0.0 -0.41372398011391753 -0.004940260399500114 0.0 -0.4168558906723218 -0.007168362447761827 0.0 -0.4184814195769241 -0.00851995094624646 0.0 -0.4163404205108882 -0.011455494511655943 0.0 -0.41599622035153033 -0.01357332703669022 0.0 -0.41811462431752516 -0.014853531546680258 0.0 -0.4172360764001713 -0.016476439464883384 0.0 -0.41830918066096473 -0.01844525154727785 0.0 -0.42017437040460187 -0.020009566143486927 0.0 -0.4181422606741563 -0.02123887373664671 0.0 -0.42072187078225604 -0.0236290765394309 0.0 -0.42133844072886256 -0.025623698159085904 0.0 -0.42144145939574407 -0.026226588090350927 0.0 -0.4225566999946656 -0.02758675175545795 0.0 -0.4261716080782284 -0.03080912912720945 0.0 -0.425115542792846 -0.03183659205856661 0.0 -0.4270234075930185 -0.03309192487292737 0.0 -0.43039842944136736 -0.03337659635921837 0.0 -1.04061953200251 -0.099963359530861 0.0 -1.02878551042107 -0.10011760388451071 0.0 -1.0180782009597589 -0.09756174528529198 0.0 -1.0076610969729187 -0.0961717458779904 0.0 -0.9969474220751172 -0.09435976085531542 0.0 -0.9866241830544954 -0.09233743662153973 0.0 -0.976767897386365 -0.09282249110088807 0.0 -0.9659323961165313 -0.09173357332267744 0.0 -0.9569030454288882 -0.09057211422057465 0.0 -0.9482506945346801 -0.08962875911013933 0.0 -0.9389447665626335 -0.08815600333568273 0.0 -0.931380318022349 -0.08822429056506827 0.0 -0.918340175971396 -0.08657503879103551 0.0 -0.9074223932586551 -0.08635941557750325 0.0 -0.8975018001756571 -0.08808423677738651 0.0 -0.8898668311809609 -0.08539210561546018 0.0 -0.8799138386825115 -0.08587482617573342 0.0 -0.869709322257487 -0.08545756746826505 0.0 -0.8592770878144512 -0.0850390575514062 0.0 -0.8464970375452326 -0.08514138053100807 0.0 -0.8355833493425534 -0.08537824440630482 0.0 -0.8230542903746848 -0.08512354788001705 0.0 -0.8113023780801292 -0.08851955839977592 0.0 -0.7984094389586097 -0.08885741018513149 0.0 -0.7859607814143904 -0.0927503535160489 0.0 -0.7730805217243114 -0.09724425620948167 0.0 -0.7632977575097223 -0.1037273633454816 0.0 -0.7540098351496038 -0.10964550065448977 0.0 -0.7439541806008029 -0.11384205650265938 0.0 -0.7354237489834425 -0.11255780079439255 0.0 -0.7253805123879289 -0.11028558083421758 0.0 -0.7188288388279687 -0.10503242450747743 0.0 -0.7100517999291149 -0.09794764132771884 0.0 -0.6986251440586093 -0.0886506695818725 0.0 -0.6866393773443685 -0.08378269945769497 0.0 -0.6731849863756578 -0.07871866148311843 0.0 -0.6586396989447434 -0.0740823421643775 0.0 -0.6467439211413468 -0.07053405080700544 0.0 -0.6350012695415804 -0.06738355102236533 0.0 -0.6212932950619032 -0.06528128954135218 0.0 -0.6095527268812463 -0.05941895681331851 0.0 -0.5984739141659172 -0.06019702612082914 0.0 -0.5896208767525891 -0.05815102296153034 0.0 -0.5776270527289586 -0.05621204374444321 0.0 -0.5667236806288245 -0.05587573644905108 0.0 -0.5573229889375262 -0.053843083564439696 0.0 -0.5454952866470586 -0.05311027562218315 0.0 -0.5381178591017147 -0.05293674129992997 0.0 -0.5271391147470388 -0.04860979784989781 0.0 -0.5166222250118747 -0.04911161298306041 0.0 -0.507938097164077 -0.04659780843836061 0.0 -0.49890883165989186 -0.04494815711070947 0.0 -0.4904654411794447 -0.045248721516300106 0.0 -0.478706536938457 -0.04190192850471431 0.0 -0.4696928515124655 -0.039991653096273255 0.0 -0.4628257067761253 -0.03859963604186587 0.0 -0.45595951649216104 -0.040908823567319584 0.0 -0.4483252897903777 -0.036326903506329236 0.0 -0.4386628001580288 -0.036914207929431994 0.0 -1.0237319469609978 -0.06149165203280486 0.0 -1.014790441614721 -0.06292708249351135 0.0 -1.0034411107135688 -0.061161381972562934 0.0 -0.9935307168742115 -0.06299357627904596 0.0 -0.9856499494519101 -0.06346824543302226 0.0 -0.9777940085278882 -0.06322274150336539 0.0 -0.9670917126146011 -0.06287252983523137 0.0 -0.9600079942450656 -0.06298303463731583 0.0 -0.9505983226807855 -0.06316262230814626 0.0 -0.9426660590212427 -0.06178134366156869 0.0 -0.9302319273464517 -0.06162653285529027 0.0 -0.919488513080835 -0.060068410135461665 0.0 -0.9088321136323235 -0.0607093461394549 0.0 -0.8986420847574301 -0.059046605955927416 0.0 -0.8861236784633132 -0.0576304565880967 0.0 -0.8734212441224449 -0.05858642532556461 0.0 -0.8624483662052539 -0.05690483621262664 0.0 -0.8521121156168779 -0.05587638187244017 0.0 -0.8421304174098854 -0.05584653941708946 0.0 -0.8318244085522994 -0.0543164614164105 0.0 -0.8186768686823069 -0.053950234326421063 0.0 -0.8062638187296471 -0.0496128074533886 0.0 -0.7932107334999305 -0.04915980952370164 0.0 -0.779342039208325 -0.043220001723394595 0.0 -0.7669305520828179 -0.03822340665932564 0.0 -0.7534423382644606 -0.03071467494599142 0.0 -0.7430584877407199 -0.02098561113138441 0.0 -0.729842266023839 -0.011929347639597536 0.0 -0.7205225407738264 -0.0060424853427395 0.0 -0.7118772664617272 -0.002925660243802949 0.0 -0.7033013565074883 -0.0024790405750098827 0.0 -0.6940939540143101 -0.006382500355689965 0.0 -0.6828613421547092 -0.009264434899837618 0.0 -0.6726611805821019 -0.016303712419101942 0.0 -0.6601058384935952 -0.02122676127867935 0.0 -0.6468900655187666 -0.024459559388191766 0.0 -0.6342288091541014 -0.02598994922179873 0.0 -0.6212582113753167 -0.02590564724275387 0.0 -0.6089155476107739 -0.028056887929070056 0.0 -0.5981484630951777 -0.02585960835810365 0.0 -0.5864648744328765 -0.026305547380568072 0.0 -0.5734872146158969 -0.024421072763793166 0.0 -0.5624505040671506 -0.02210081890945552 0.0 -0.5535823631463409 -0.022984885553668222 0.0 -0.5442123800350156 -0.019991708298694302 0.0 -0.532565810299624 -0.018390720830049712 0.0 -0.5226144536419581 -0.016553534904815915 0.0 -0.5147033984492876 -0.015834457059767652 0.0 -0.5038980105140157 -0.012659020280034766 0.0 -0.4950062285500262 -0.012458009122766895 0.0 -0.4863065671759697 -0.011844624519887213 0.0 -0.4774555560099219 -0.009986058414824662 0.0 -0.46979561301938444 -0.00855819784015834 0.0 -0.4608730376520393 -0.008305391069004414 0.0 -0.45404431750419394 -0.0076266948708687944 0.0 -0.44514361296010974 -0.005821562345677263 0.0 -0.43707893868570463 -0.0041748876865996785 0.0 -0.4285869722775012 -0.004927571794300429 0.0 -0.4211421956328595 -0.0020331621653576822 0.0 -0.5501151741319155 -0.04672699511167147 0.0 -0.8973335003300359 -0.07120767167344053 0.0 -0.9644101414311896 -0.07693399690691373 0.0 -0.4893077429751026 -0.03291970669593183 0.0 -0.8367269080818217 -0.06415239378625558 0.0 -0.6001929109172813 -0.04078541294270779 0.0 -0.6121335705163568 -0.05708125235241158 0.0 -0.8444481410319332 -0.07186579645560856 0.0 -0.5272751113631239 -0.043298856417400534 0.0 -0.9289905631738533 -0.07912657709076873 0.0 -0.9107549960863398 -0.06928376801559397 0.0 -0.5304972572643095 -0.033359647486514384 0.0 -0.47100468154177894 -0.034419426663778584 0.0 -0.9900615849006952 -0.08646419846257282 0.0 -0.9916138348324803 -0.07185376361085329 0.0 -0.45941847711074363 -0.021252556585242433 0.0 -0.8777938852408539 -0.06642795033060281 0.0 -0.5674472318133382 -0.04883023589576229 0.0 -0.7733024816481024 -0.09403569570657333 0.0 -0.6856598790792094 -0.08544261562999404 0.0 -0.7852598474650687 -0.04674189364040175 0.0 -0.6509654338092989 -0.031220102750569103 0.0 -0.5854603993568037 -0.054107376755143634 0.0 -0.8714894199397888 -0.07509442973239969 0.0 -0.9467856350842366 -0.06928112454231043 0.0 -0.4979417068425879 -0.0240016763327362 0.0 -1.0034800871417184 -0.0813671093498432 0.0 -0.45395584906274344 -0.02783630582779294 0.0 -0.5692447877960448 -0.03500418731569112 0.0 -0.8667137703356877 -0.06402426664441352 0.0 -0.7323712835312868 -0.10621756221419063 0.0 -0.7251221712347903 -0.009819009030674347 0.0 -0.9258549823046657 -0.07435536746509981 0.0 -0.5248203671084293 -0.04147313509265957 0.0 -0.81197327265964 -0.07585910135235838 0.0 -0.6391634543565354 -0.06498631182830249 0.0 -0.5578463680727632 -0.043873926738214664 0.0 -0.8839365026105631 -0.06661230969606828 0.0 -0.95614101125683 -0.08513317193103918 0.0 -0.505165168235646 -0.0407403237971676 0.0 -0.8431929020894913 -0.06031214345802263 0.0 -0.5954656068556338 -0.046048785970230294 0.0 -0.4960089905577017 -0.03704380376451923 0.0 -0.9605961474127774 -0.08138466050304065 0.0 -0.6901912291148614 -0.0111279540125699 0.0 -0.8140594025659438 -0.08077821092187722 0.0 -0.6487787621930091 -0.06840612425581909 0.0 -0.901658568840085 -0.0800339110620916 0.0 -0.5584834073981649 -0.050667379246954136 0.0 -0.45415330667923093 -0.034714998772117374 0.0 -1.0136023686845856 -0.09263615732583146 0.0 -0.5834549399689368 -0.05406169708574135 0.0 -0.8630634998667422 -0.0667105134067052 0.0 -0.9021276011721269 -0.07531785250705186 0.0 -0.552276392879449 -0.04812935016728374 0.0 -0.9136337561970875 -0.06629293686634434 0.0 -0.5230198608907688 -0.02243193433921403 0.0 -0.8034917357369443 -0.05522642757968416 0.0 -0.6293522589580988 -0.03365089849224275 0.0 -0.9040624457375356 -0.07036685287322215 0.0 -0.540343941237 -0.04062531328221158 0.0 -1.0168662458843265 -0.08721501048438488 0.0 -0.4457228988871238 -0.027591861943794337 0.0 -0.570880953126243 -0.04961511733727604 0.0 -0.8775426656643482 -0.0687817834892836 0.0 -1.0082833154158644 -0.06818948871968197 0.0 -0.4391931502421794 -0.012536790853149933 0.0 -0.9409123807963319 -0.07368145540210337 0.0 -0.5102283558345457 -0.03532955036099457 0.0 -0.9675658721095144 -0.06883340352096491 0.0 -0.4763140561295064 -0.016890419677906277 0.0 -0.6197922846575297 -0.06096302791309458 0.0 -0.8427668746055806 -0.07890378059113397 0.0 -0.440660120323366 -0.02177387445271931 0.0 -1.0136056941311637 -0.07446306283814984 0.0 -0.7527440868943314 -0.10268918242310854 0.0 -0.7061605867446454 -0.09848017057151463 0.0 -0.9818694599806002 -0.08869886957676051 0.0 -0.4789209430464928 -0.037763433937104 0.0 -0.5713993168333903 -0.05008977407576796 0.0 -0.8719334433583421 -0.06414619655421981 0.0 -0.9296249056302867 -0.08397443130873175 0.0 -0.5306530088696942 -0.047138755776143286 0.0 -0.5503622060349787 -0.02748475830611905 0.0 -0.884182285194486 -0.06424778889243435 0.0 -0.5975198001185944 -0.03333713722860683 0.0 -0.8343663637291565 -0.060796809751114435 0.0 -0.9714647367094684 -0.07369521193794513 0.0 -0.48078281311738486 -0.02735568595492187 0.0 -0.7536190657526675 -0.023716022112866105 0.0 -0.7533218634040186 -0.02610958989115617 0.0 -0.9824009791994969 -0.08086731526092103 0.0 -0.4755317648836084 -0.031922605059022315 0.0 -0.9466250044879038 -0.07711990441014448 0.0 -0.5067389517636288 -0.03886183097169002 0.0 -0.6758431244646349 -0.016725821964563008 0.0 -0.6523114817765635 -0.02947912230390611 0.0 -0.5916743143104446 -0.05279390617413867 0.0 -0.8641147059267071 -0.0718239900756255 0.0 -0.5756010383922674 -0.04542246586549862 0.0 -0.8646420752031685 -0.06437379861688788 0.0 -0.7552968170464662 -0.10524339165801293 0.0 -0.7118843238910362 -0.101342002579904 0.0 -0.8002651559879473 -0.04607908438805973 0.0 -0.8611066395976088 -0.06631714834084844 0.0 -0.5751670616448223 -0.04010202819488436 0.0 -0.4614431636547633 -0.026322901565841567 0.0 -0.9921862258412808 -0.07590960173750422 0.0 -0.5824672513065173 -0.051753454910585514 0.0 -0.8663401030358001 -0.06768254259479423 0.0 -0.7000209719637768 -0.0068434394896325305 0.0 -0.5848912554152454 -0.05491662162153776 0.0 -0.8754011637229304 -0.08053096908912016 0.0 -0.6722169988229295 -0.0825268559455527 0.0 -0.7819324094149438 -0.08860904058821434 0.0 -0.8919160673303892 -0.06928168413662199 0.0 -0.5480189912226694 -0.03664347947344805 0.0 -0.9360396282518502 -0.06613497242134776 0.0 -0.5058092746853561 -0.019605917763736533 0.0 -1.0229542878777997 -0.08171360386307105 0.0 -0.43513215789592996 -0.02335623643975753 0.0 -0.784802943690388 -0.09072148922969758 0.0 -0.68097732575702 -0.082224496651018 0.0 -0.8879096497040792 -0.07344131945866217 0.0 -0.5647516660734793 -0.050265526824687386 0.0 -0.7266578804428007 -0.010847011118389033 0.0 -0.9296359979913549 -0.07013421804428527 0.0 -0.5138662517677484 -0.02895494903377445 0.0 -0.9866973356867041 -0.0666787932588006 0.0 -0.45824308733938146 -0.012849183902492812 0.0 -0.8847868637538039 -0.06816399236369805 0.0 -0.56071739541627 -0.04762562284666116 0.0 -1.025794041815595 -0.09046415065016966 0.0 -0.441286011846905 -0.030637049027949288 0.0 -0.8143224595649934 -0.058281961347358545 0.0 -0.6220469611254753 -0.040497115313532235 0.0 -0.8004588908564579 -0.07964694121097056 0.0 -0.6571990022437715 -0.06915534503102332 0.0 -0.4340935517940054 -0.013859363962434207 0.0 -1.01760473840666 -0.0723587437026329 0.0 -0.5770076514417672 -0.030908825031092393 0.0 -0.8530403954616497 -0.06099044634849 0.0 -0.9102904981271195 -0.0730021022768336 0.0 -0.5404274786849445 -0.044654036733155614 0.0 -0.7765873732950331 -0.04301409134165697 0.0 -0.7293174452704251 -0.10474098723787764 0.0 -0.529410033276974 -0.043643271954282234 0.0 -0.9246670234039289 -0.07659831369672555 0.0 -0.4623495277089211 -0.02908216079938789 0.0 -0.9977027373363432 -0.08413166482334593 0.0 -0.9524239023359762 -0.07267247317027263 0.0 -0.4967309862025723 -0.03034253477612584 0.0 -0.5075558656792908 -0.04031790449332779 0.0 -0.9478008010609139 -0.08151139892912738 0.0 -0.9697157397204372 -0.08378572172414935 0.0 -0.4897745199258238 -0.03606151389454316 0.0 -0.528058435901303 -0.03864786589255232 0.0 -0.9181631049479996 -0.07230089795057026 0.0 -0.6514567920294074 -0.0265201403717008 0.0 -0.9639429244811285 -0.08792466019917825 0.0 -0.49852143115847686 -0.0429058618405321 0.0 -0.8325809677319913 -0.0749550571156664 0.0 -0.6267306131606455 -0.061339642389324406 0.0 -0.8427194279492843 -0.06945970187370143 0.0 -0.6093906555140357 -0.056611397107344245 0.0 -0.8443332115030364 -0.07035511166568446 0.0 -0.6051034458545627 -0.06135881551357756 0.0 -0.44337478280928044 -0.035339951433108106 0.0 -1.029693780939495 -0.0973244042398817 0.0 -0.8655557526647517 -0.06590053775394343 0.0 -0.5751775241454826 -0.04407127891407567 0.0 -0.857782796366742 -0.08169350825381612 0.0 -0.6053684733608495 -0.05934372469221988 0.0 -0.8602529791018168 -0.0597748280376768 0.0 -0.5804011717971337 -0.04581762922284344 0.0 -0.9447863157451796 -0.08630807009140629 0.0 -0.5168978957249787 -0.045249649625438294 0.0 -0.9983977183846343 -0.09288189666639309 0.0 -0.4680297572963888 -0.03716184740164052 0.0 -0.5491169692488528 -0.043451655308269596 0.0 -0.8958345043813318 -0.06919023553804221 0.0 -0.9134704197820973 -0.08359075712107923 0.0 -0.5505601469523616 -0.05044810077093064 0.0 -0.8241323439549475 -0.08208623940929688 0.0 -0.6432994842804789 -0.06727734899890196 0.0 -0.5660092600059309 -0.051575227653626037 0.0 -0.8902517335400085 -0.07623963048827266 0.0 -0.5441050864493632 -0.04768078749013185 0.0 -0.9126301867028387 -0.07690832279296818 0.0 -0.9440013198603922 -0.07930182780364392 0.0 -0.5121627220178049 -0.04038215907946855 0.0 -0.5579679954209072 -0.03943718217651661 0.0 -0.882579924062505 -0.06839826678022792 0.0 -0.7335570033366322 -0.01201951507124368 0.0 -0.4587610872374961 -0.03234374629238225 0.0 -1.0055729072447313 -0.08894729560745672 0.0 -0.8260226544555196 -0.060787778293143815 0.0 -0.6080942280977759 -0.036891491519535156 0.0 -0.9802847341425213 -0.07840516477494054 0.0 -0.47540191639250434 -0.029860285603380048 0.0 -0.9530209115449064 -0.06574328613510884 0.0 -0.4884627044923882 -0.016987771429170524 0.0 -0.7285728219312484 -0.10955723934051467 0.0 -0.5735971318134581 -0.05301778557444544 0.0 -0.8722087356598148 -0.06386521843749741 0.0 -0.9003352998752984 -0.06708648625720603 0.0 -0.5364385175080598 -0.02815551795146966 0.0 -0.6014766829265548 -0.040638755446471324 0.0 -0.4808523551647376 -0.03310149148895815 0.0 -0.9779947070700284 -0.08333648793464486 0.0 -0.534847637490635 -0.022865147942208928 0.0 -0.8993899302808239 -0.06349537707702362 0.0 -0.4313344280391202 -0.019942849954231845 0.0 -1.0256167434562578 -0.07786831388277032 0.0 -0.6815119084223158 -0.013818229466326127 0.0 -0.48959814222474995 -0.03341831248777245 0.0 -0.9665801469772128 -0.08016020608556208 0.0 -0.96421413585221 -0.0713495121580861 0.0 -0.4833400401145482 -0.022226028951973727 0.0 -0.6161126586316307 -0.030859840122653425 0.0 -0.8102288059654772 -0.054093567951443336 0.0 -1.0175427662593668 -0.06589237869330394 0.0 -0.4296375135921892 -0.007333048590554285 0.0 -0.6341827265004254 -0.0614126837486234 0.0 -0.8203060374106415 -0.07382005751281508 0.0 -0.7041719986570221 -0.009997917294011834 0.0 -0.6298470077829212 -0.03852857031231228 0.0 -0.8777557218226552 -0.06641665591195525 0.0 -0.5651675166609305 -0.0472953022459299 0.0 -0.8941121362030215 -0.08361990561321256 0.0 -0.5681566493946059 -0.05502815943219851 0.0 -0.6717293781376741 -0.020626230122921016 0.0 -0.8735340854783771 -0.0649039945017603 0.0 -0.5703850348321666 -0.05200692610483106 0.0 -0.5334009457998822 -0.041936816755300074 0.0 -0.9153099573433676 -0.07219692507380307 0.0 -0.8833423429807746 -0.0661235183584711 0.0 -0.5537634145647342 -0.032613441179049726 0.0 -1.0318823234052006 -0.09409178871903719 0.0 -0.4388534115924788 -0.03219138349777577 0.0 -0.5354845767812599 -0.04684727484770234 0.0 -0.9236955230390053 -0.08021548906219819 0.0 -0.601093706409551 -0.056726914362530516 0.0 -0.8563659975371438 -0.07499523827921531 0.0 -0.789706874832049 -0.08340302666644496 0.0 -0.6672224528281323 -0.07447223125939816 0.0 -0.5147270855608683 -0.03891590925637324 0.0 -0.9369563738410469 -0.07535200531517076 0.0 -0.757189888093928 -0.10274