<?xml version="1.0" ?>
<VTKFile byte_order="LittleEndian" type="UnstructuredGrid" version="0.1">
<UnstructuredGrid>
<Piece NumberOfCells="3478" NumberOfPoints="1836">
<Points>
<DataArray NumberOfComponents="3" format="ascii" type="Float32">0.0 0.0 0.0 0.0 30.0 0.0 90.0 0.0 0.0 90.0 30.0 0.0 45.0 14.7 0.0 45.0 19.7 0.0 45.0 9.7 0.0 44.0245483899222 19.60392640201672 0.0 43.08658283818048 19.31939766255888 0.0 42.22214883490896 18.85734806151738 0.0 41.46446609407355 18.23553390593903 0.0 40.84265193849559 17.47785116511045 0.0 40.38060233744971 16.61341716184027 0.0 40.09607359798762 15.67545161009959 0.0 40.0 14.7000000000206 0.0 40.09607359798068 13.72454838993527 0.0 40.38060233743827 12.78658283818735 0.0 40.84265193848201 11.92214883490987 0.0 41.46446609406021 11.16446609407431 0.0 42.22214883489495 10.54265193849198 0.0 43.08658283817165 10.08060233744477 0.0 44.02454838991945 9.79607359798383 0.0 45.97545161007786 9.796073597983295 0.0 46.91341716181914 10.08060233744095 0.0 47.77785116509095 10.54265193848255 0.0 48.53553390592572 11.16446609406025 0.0 49.15734806150372 11.92214883488851 0.0 49.61939766255018 12.78658283815946 0.0 49.90392640201246 13.72454838990077 0.0 50.0 14.69999999997977 0.0 49.90392640201924 15.67545161006509 0.0 49.6193976625616 16.61341716181298 0.0 49.15734806151947 17.47785116508791 0.0 48.53553390594058 18.23553390592489 0.0 47.77785116510518 18.85734806150794 0.0 46.91341716182851 19.31939766255517 0.0 45.97545161008048 19.60392640201618 0.0 0.0 1.499999999999333 0.0 0.0 2.999999999999543 0.0 0.0 4.499999999999284 0.0 0.0 5.999999999997914 0.0 0.0 7.499999999996543 0.0 0.0 8.999999999992466 0.0 0.0 10.49999999998665 0.0 0.0 11.99999999998084 0.0 0.0 13.49999999997503 0.0 0.0 14.99999999996956 0.0 0.0 16.49999999997229 0.0 0.0 17.99999999997536 0.0 0.0 19.49999999997843 0.0 0.0 20.9999999999815 0.0 0.0 22.49999999998457 0.0 0.0 23.99999999998764 0.0 0.0 25.49999999999073 0.0 0.0 26.99999999999382 0.0 0.0 28.49999999999692 0.0 90.0 1.499999999999333 0.0 90.0 2.999999999999543 0.0 90.0 4.499999999999284 0.0 90.0 5.999999999997914 0.0 90.0 7.499999999996543 0.0 90.0 8.999999999992466 0.0 90.0 10.49999999998665 0.0 90.0 11.99999999998084 0.0 90.0 13.49999999997503 0.0 90.0 14.99999999996956 0.0 90.0 16.49999999997229 0.0 90.0 17.99999999997536 0.0 90.0 19.49999999997843 0.0 90.0 20.9999999999815 0.0 90.0 22.49999999998457 0.0 90.0 23.99999999998764 0.0 90.0 25.49999999999073 0.0 90.0 26.99999999999382 0.0 90.0 28.49999999999692 0.0 1.499999999999597 30.0 0.0 2.999999999999036 30.0 0.0 4.499999999998088 30.0 0.0 5.999999999997163 30.0 0.0 7.499999999997185 30.0 0.0 8.999999999997288 30.0 0.0 10.49999999999739 30.0 0.0 11.99999999999602 30.0 0.0 13.49999999999316 30.0 0.0 14.9999999999903 30.0 0.0 16.49999999998744 30.0 0.0 17.99999999998458 30.0 0.0 19.49999999998172 30.0 0.0 20.99999999997887 30.0 0.0 22.49999999997601 30.0 0.0 23.99999999997315 30.0 0.0 25.4999999999703 30.0 0.0 26.99999999996745 30.0 0.0 28.49999999996459 30.0 0.0 29.99999999996174 30.0 0.0 31.49999999995888 30.0 0.0 32.99999999995603 30.0 0.0 34.49999999995318 30.0 0.0 35.99999999995033 30.0 0.0 37.49999999994748 30.0 0.0 38.99999999994462 30.0 0.0 40.49999999994177 30.0 0.0 41.99999999993892 30.0 0.0 43.49999999993607 30.0 0.0 44.99999999993459 30.0 0.0 46.49999999994219 30.0 0.0 47.99999999995118 30.0 0.0 49.49999999996015 30.0 0.0 50.99999999996914 30.0 0.0 52.49999999997812 30.0 0.0 53.99999999998711 30.0 0.0 55.49999999999608 30.0 0.0 57.00000000000507 30.0 0.0 58.50000000001404 30.0 0.0 60.00000000002303 30.0 0.0 61.500000000032 30.0 0.0 63.00000000004099 30.0 0.0 64.50000000004795 30.0 0.0 66.00000000004582 30.0 0.0 67.50000000004296 30.0 0.0 69.00000000004009 30.0 0.0 70.50000000003723 30.0 0.0 72.00000000003436 30.0 0.0 73.5000000000315 30.0 0.0 75.00000000002863 30.0 0.0 76.50000000002578 30.0 0.0 78.00000000002291 30.0 0.0 79.50000000002005 30.0 0.0 81.0000000000172 30.0 0.0 82.50000000001431 30.0 0.0 84.00000000001147 30.0 0.0 85.50000000000858 30.0 0.0 87.00000000000573 30.0 0.0 88.50000000000286 30.0 0.0 1.499999999999597 0.0 0.0 2.999999999999036 0.0 0.0 4.499999999998088 0.0 0.0 5.999999999997163 0.0 0.0 7.499999999997185 0.0 0.0 8.999999999997288 0.0 0.0 10.49999999999739 0.0 0.0 11.99999999999602 0.0 0.0 13.49999999999316 0.0 0.0 14.9999999999903 0.0 0.0 16.49999999998744 0.0 0.0 17.99999999998458 0.0 0.0 19.49999999998172 0.0 0.0 20.99999999997887 0.0 0.0 22.49999999997601 0.0 0.0 23.99999999997315 0.0 0.0 25.4999999999703 0.0 0.0 26.99999999996745 0.0 0.0 28.49999999996459 0.0 0.0 29.99999999996174 0.0 0.0 31.49999999995888 0.0 0.0 32.99999999995603 0.0 0.0 34.49999999995318 0.0 0.0 35.99999999995033 0.0 0.0 37.49999999994748 0.0 0.0 38.99999999994462 0.0 0.0 40.49999999994177 0.0 0.0 41.99999999993892 0.0 0.0 43.49999999993607 0.0 0.0 44.99999999993459 0.0 0.0 46.49999999994219 0.0 0.0 47.99999999995118 0.0 0.0 49.49999999996015 0.0 0.0 50.99999999996914 0.0 0.0 52.49999999997812 0.0 0.0 53.99999999998711 0.0 0.0 55.49999999999608 0.0 0.0 57.00000000000507 0.0 0.0 58.50000000001404 0.0 0.0 60.00000000002303 0.0 0.0 61.500000000032 0.0 0.0 63.00000000004099 0.0 0.0 64.50000000004795 0.0 0.0 66.00000000004582 0.0 0.0 67.50000000004296 0.0 0.0 69.00000000004009 0.0 0.0 70.50000000003723 0.0 0.0 72.00000000003436 0.0 0.0 73.5000000000315 0.0 0.0 75.00000000002863 0.0 0.0 76.50000000002578 0.0 0.0 78.00000000002291 0.0 0.0 79.50000000002005 0.0 0.0 81.0000000000172 0.0 0.0 82.50000000001431 0.0 0.0 84.00000000001147 0.0 0.0 85.50000000000858 0.0 0.0 87.00000000000573 0.0 0.0 88.50000000000286 0.0 0.0 63.37364706550937 16.50964628420433 0.0 26.62635293463404 16.50964628433121 0.0 13.41978650690528 13.45950154969383 0.0 76.58021349318176 13.45950154962137 0.0 33.45476071497805 8.290175608698323 0.0 56.54523928495111 8.290175608661723 0.0 56.52897059443286 20.86236316873536 0.0 33.47102940567571 20.86236316876138 0.0 71.2830521058756 21.04460405596809 0.0 18.71694789423233 21.04460405599743 0.0 21.41980901986561 9.070463267320616 0.0 68.58019098027053 9.07046326726413 0.0 80.99914552692991 20.97721309723637 0.0 9.000854473061795 20.97721309727302 0.0 7.870305877421703 8.018059563575596 0.0 82.12969412262107 8.018059563525435 0.0 33.7165245411982 14.65399207417489 0.0 56.28347545881759 14.65399207414136 0.0 39.97305498366637 24.34223222603792 0.0 50.02694501636432 24.34223222603521 0.0 38.06318796926433 6.581870986627434 0.0 51.65683578806563 6.660577520338367 0.0 62.64972062822329 23.28495574336215 0.0 27.35027937196879 23.28495574342431 0.0 14.97502445613706 6.824785268959483 0.0 75.02497554396214 6.824785268919009 0.0 6.787494920844402 14.64311087002373 0.0 83.2125050791834 14.64311087005626 0.0 62.74377049329286 6.199343823534628 0.0 27.25622950671565 6.19934382349436 0.0 45.000000000016 24.81766533538266 0.0 43.95657580818752 4.66610370877416 0.0 20.65769446566512 15.12449163383865 0.0 69.34230553450763 15.12449163379761 0.0 37.96200801440695 20.41720228097835 0.0 52.03799198563937 20.41720228095547 0.0 60.84525610777352 11.56302347148087 0.0 29.15474389221305 11.56302347157453 0.0 13.9479594477568 24.07830472189175 0.0 76.05204055230455 24.07830472189373 0.0 37.10725181280449 10.48234091456723 0.0 52.87039497378214 10.64738567442688 0.0 76.13945330379045 19.16176902849947 0.0 13.86054669631562 19.16176902853507 0.0 47.5363758303687 6.338689435416557 0.0 34.86428980814253 25.34552342098224 0.0 55.13571019192649 25.34552342097093 0.0 22.30941555412428 24.72828550626092 0.0 67.69058444605145 24.72828550626487 0.0 84.713423002924 24.99937419725806 0.0 5.286576997074654 24.99937419725982 0.0 53.00114321705956 17.18011225714096 0.0 36.99885678297024 17.18011225718971 0.0 23.5598838532369 20.42784805271946 0.0 66.44011614689009 20.42784805259263 0.0 19.30012895581989 4.590769543361563 0.0 70.69987104427214 4.590769543316364 0.0 34.65194187852933 4.323942427443631 0.0 55.3509190897658 4.276953815657579 0.0 24.56326495034983 12.51090819943921 0.0 65.43673504967131 12.51090819926273 0.0 4.675281458987522 18.75593683549119 0.0 85.32471854101604 18.75593683552496 0.0 59.27549643767956 17.55657731658075 0.0 30.72450356243039 17.55657731666243 0.0 4.48422503831524 4.681086215913009 0.0 85.51577496171463 4.681086215890073 0.0 17.49653004164637 11.94727187727593 0.0 72.50346995845473 11.94727187724224 0.0 10.98527091569449 4.578615553731414 0.0 79.0147290843752 4.578615553705176 0.0 58.91405463068145 25.62404760730938 0.0 31.08594536941772 25.6240476073746 0.0 85.5241378133564 10.79876961335222 0.0 4.475862186642179 10.79876961333991 0.0 42.66656627406208 22.55964308489288 0.0 47.33343372595118 22.55964308489816 0.0 9.583286029275847 25.4002693669458 0.0 80.41671397074799 25.40026936696242 0.0 53.06845121340182 13.81856388174299 0.0 36.93154878659712 13.81856388180116 0.0 17.8174374277252 25.57763591150952 0.0 72.18256257238082 25.5776359115521 0.0 66.48712173895905 4.220888897947975 0.0 23.51287826110802 4.220888897905488 0.0 59.31833062037198 4.22591876993067 0.0 30.68166937960341 4.225918769883755 0.0 11.77463693523386 9.605550025953741 0.0 78.22536306483727 9.60555002590434 0.0 41.61323298424063 7.118443406710728 0.0 40.49821449791196 3.657232821442271 0.0 10.5266603073137 16.32186666614573 0.0 79.47333969271385 16.32186666603704 0.0 16.67405390020416 15.97604740026929 0.0 73.32594609994788 15.97604740025251 0.0 49.78436784633756 3.517636631289772 0.0 49.88839936442268 8.765969189103764 0.0 60.0639438556624 21.0617009560476 0.0 29.93605614447742 21.06170095609978 0.0 55.93957776705275 11.46129603095351 0.0 34.06042223290302 11.46129603098422 0.0 42.080133866937 26.6941411693382 0.0 47.61442067123723 26.51556330917287 0.0 39.44356817596738 9.167540042382463 0.0 29.86186672815856 8.62859477986549 0.0 60.13813327177503 8.62859477979463 0.0 81.60488436417148 11.7395599460253 0.0 8.395115635915154 11.73955994604578 0.0 56.13971841765213 17.80631872018535 0.0 33.86028158239547 17.80631872019029 0.0 46.635920
[...]
<PointData>
<DataArray Name="displ" NumberOfComponents="3" format="ascii" type="Float32">-0.5331948593506786 -0.039791807826456506 0.0 -0.5375550476416193 -0.05706396340756208 0.0 -0.207388707352266 -0.006009305797790261 0.0 -0.216265583499228 -0.02797282361795903 0.0 -0.4977054168128897 -0.04331740130473844 0.0 -0.37263524308083523 -0.05890585565183368 0.0 -0.369805313059601 -0.0060146056648937764 0.0 -0.38308963780214567 -0.05958527902459728 0.0 -0.39560841495289184 -0.057648125946568124 0.0 -0.4088551350316061 -0.05282632862372392 0.0 -0.4172604394242758 -0.050485295448999316 0.0 -0.42850709476863225 -0.04603641187071112 0.0 -0.4365836775808921 -0.042632061755121395 0.0 -0.44013735015151734 -0.038572444444261625 0.0 -0.4418326326668268 -0.03608062701409564 0.0 -0.44021093721947196 -0.0328750895615179 0.0 -0.4364976721354727 -0.02882744129862885 0.0 -0.4297955849006648 -0.02544229935189186 0.0 -0.4205206564574436 -0.021581851882456666 0.0 -0.40810412633948884 -0.017343136054687375 0.0 -0.39462309303223475 -0.011376230015561676 0.0 -0.3808936354674469 -0.007102769807600327 0.0 -0.3556563136486625 -0.009622247652535958 0.0 -0.34161408536000404 -0.010777216805215846 0.0 -0.32766461145097076 -0.013448068609378559 0.0 -0.3172683910391452 -0.016699870846307835 0.0 -0.30732284484626304 -0.021361462927662937 0.0 -0.301385864307193 -0.0273245166188264 0.0 -0.29762145730345135 -0.030211669244110027 0.0 -0.2962484595706272 -0.033573289328660424 0.0 -0.2985384459605304 -0.03642305742506258 0.0 -0.301594753613205 -0.04142854231298721 0.0 -0.3102713259403195 -0.044496827334473785 0.0 -0.32199755255999274 -0.048684675575911364 0.0 -0.3335652566527228 -0.0543449039910326 0.0 -0.3485202368774748 -0.05658352016076861 0.0 -0.36077579045352587 -0.05820808437064103 0.0 -0.5332561076021327 -0.03899014907771226 0.0 -0.5348201906453819 -0.04013698931267549 0.0 -0.5344531085779674 -0.040841832549443596 0.0 -0.5337331778194466 -0.042917138368221 0.0 -0.5340172707773463 -0.043317627654331635 0.0 -0.5349455209811798 -0.04404367924667326 0.0 -0.534838873902116 -0.04561401591208566 0.0 -0.5346098634169532 -0.045728699309079586 0.0 -0.5347678820439435 -0.048114182417480576 0.0 -0.5338296254081033 -0.04827146255810435 0.0 -0.5353355607241106 -0.050539428074996305 0.0 -0.5346793911947179 -0.051052320370524706 0.0 -0.5342441573897438 -0.05147874304298899 0.0 -0.5349974143570553 -0.05320411614411405 0.0 -0.5351381032955275 -0.0519817301304305 0.0 -0.5343815001913149 -0.05454240963045926 0.0 -0.5357091491809818 -0.05490413967642202 0.0 -0.5363564496763382 -0.054885860921269 0.0 -0.5368475221660719 -0.05619865064594201 0.0 -0.20774802676113654 -0.00754987902740109 0.0 -0.20729866560379265 -0.008729027105399202 0.0 -0.2087353924964446 -0.010370127980926413 0.0 -0.21002904659356697 -0.011191726319589288 0.0 -0.20868047757217012 -0.013446696725889147 0.0 -0.2079429618034712 -0.015281929031419386 0.0 -0.20821163459565292 -0.015382394930361845 0.0 -0.20952336315169012 -0.017786450118059596 0.0 -0.2104166262643479 -0.018895054997815502 0.0 -0.21117979804859618 -0.020298979677364277 0.0 -0.21044130477487957 -0.02238030773584563 0.0 -0.2122468457094262 -0.023339138662377718 0.0 -0.2126285200407153 -0.024627561775558575 0.0 -0.21192073001027492 -0.025052595565170296 0.0 -0.2138071692455781 -0.02614242379217252 0.0 -0.21372402387002123 -0.026189274269310926 0.0 -0.21382958406770372 -0.02673439987048267 0.0 -0.21537415618547795 -0.026616240350850383 0.0 -0.2159712082130086 -0.025213221640913303 0.0 -0.534371435102873 -0.05603650098432054 0.0 -0.5281189342502501 -0.054873794305814245 0.0 -0.5213526011567218 -0.053914080849877415 0.0 -0.516024505076427 -0.0540052158944246 0.0 -0.5101164426753243 -0.05244078097929857 0.0 -0.5049493051039721 -0.051795601019098955 0.0 -0.4996696041003893 -0.051989084554057145 0.0 -0.4946525595029873 -0.05226373126963169 0.0 -0.48917336986274695 -0.0526795397311704 0.0 -0.48456623594070264 -0.051377515784208676 0.0 -0.4792306296586021 -0.05053470462701152 0.0 -0.4744341416240154 -0.04972420563056718 0.0 -0.4686794782095949 -0.049141626233526685 0.0 -0.4647883062837955 -0.04890625915738141 0.0 -0.45964445921222663 -0.047999536625730074 0.0 -0.4550564031791864 -0.048285294637130834 0.0 -0.4502334424033937 -0.04865126862867719 0.0 -0.4446928225322685 -0.0485459462571353 0.0 -0.4398195574539041 -0.04806161142141449 0.0 -0.4332281376284848 -0.04698123652756156 0.0 -0.428091407871974 -0.04669502111389845 0.0 -0.422111988250412 -0.047259645538226536 0.0 -0.41580452090856407 -0.04786367156317209 0.0 -0.40828831102923646 -0.04829303847482334 0.0 -0.40174723012451363 -0.04974713730275997 0.0 -0.39456685853456397 -0.05245074419220869 0.0 -0.3891172524817692 -0.055405290842639766 0.0 -0.38365931374664586 -0.05965236761105559 0.0 -0.37973987576218377 -0.0609833077882913 0.0 -0.3756721753266852 -0.062049913589703146 0.0 -0.3704323757975604 -0.06193919367895853 0.0 -0.36655955746906416 -0.05913248373389584 0.0 -0.36207787567392413 -0.055559665559093994 0.0 -0.3568610643870261 -0.050881566959865426 0.0 -0.3507324932427226 -0.04751691593653055 0.0 -0.34380183108822027 -0.04303167442131636 0.0 -0.3363435580028228 -0.04277859331407241 0.0 -0.330661199146265 -0.038360181648886105 0.0 -0.3234375439460853 -0.03769160471822754 0.0 -0.3165702675437263 -0.03625094833436343 0.0 -0.31012285921092075 -0.03373753500735265 0.0 -0.3020728729954009 -0.03600195205963021 0.0 -0.2978096482566249 -0.03703641351070606 0.0 -0.29173668221535287 -0.0366478990332652 0.0 -0.28553753358022954 -0.03894122364691467 0.0 -0.2812538632945168 -0.03714516697443651 0.0 -0.27503560254068 -0.03702834922108685 0.0 -0.272089399653054 -0.037482234856300346 0.0 -0.2661580159843527 -0.03463961840083335 0.0 -0.2632959422551495 -0.03645350581151497 0.0 -0.25945334089136624 -0.033790347883671565 0.0 -0.25558512389426297 -0.030898844932168115 0.0 -0.25258191281768083 -0.031199937867244974 0.0 -0.2457937880304705 -0.028824493864036686 0.0 -0.24151200706217277 -0.02814384170961146 0.0 -0.23500711147397083 -0.02908202287470956 0.0 -0.2299491794196897 -0.030601236635526247 0.0 -0.22467269470188156 -0.02937654332047403 0.0 -0.21993298026234293 -0.027101134712635713 0.0 -0.5284577970764295 -0.039224089170342265 0.0 -0.5233597095711918 -0.03938925752092243 0.0 -0.5169651326717176 -0.03807481676728883 0.0 -0.5126587502376495 -0.039472266786676015 0.0 -0.5094748917224511 -0.039730089005290424 0.0 -0.5049917116695612 -0.03988697133960277 0.0 -0.5009445960293771 -0.039531060163523576 0.0 -0.4960618723159236 -0.038113327073843815 0.0 -0.49207040760904536 -0.03835459033646292 0.0 -0.48698628014337725 -0.037637194552984005 0.0 -0.4812815394256823 -0.03521991733657005 0.0 -0.47543092567435813 -0.03575546873674434 0.0 -0.46935790356176826 -0.03482118105797015 0.0 -0.46221731527004256 -0.03540124183413187 0.0 -0.4549507908958685 -0.03428788885212687 0.0 -0.44849597642803746 -0.03427756848075967 0.0 -0.44093211741121613 -0.0329825126443032 0.0 -0.43335058770929347 -0.03265351616036135 0.0 -0.42773724735252316 -0.033248776743786526 0.0 -0.4233962772254004 -0.031622848306130415 0.0 -0.416869119417967 -0.03147554663692059 0.0 -0.4111296143199796 -0.029753917164724884 0.0 -0.405244001353239 -0.028847757008001976 0.0 -0.3988553708997944 -0.026437329888817945 0.0 -0.3933305073737107 -0.021902005987906734 0.0 -0.3859797717979178 -0.018785146441681437 0.0 -0.38099750416910144 -0.013989909630117165 0.0 -0.3747682880957123 -0.009477206239067025 0.0 -0.37013533755836425 -0.0068390771448867144 0.0 -0.3649838537966987 -0.006085083254161392 0.0 -0.35947662422348087 -0.005867441228765817 0.0 -0.3536626961436596 -0.00805109221321111 0.0 -0.3493628426821093 -0.009849436232466207 0.0 -0.3427651745393767 -0.012577844603093677 0.0 -0.33613776353136415 -0.01541537562089804 0.0 -0.3282828900571376 -0.01739316438279645 0.0 -0.321750946258859 -0.0181292168255218 0.0 -0.31565877037608764 -0.016840152392487585 0.0 -0.3087466903866758 -0.018998566645630616 0.0 -0.30289546638713627 -0.017668561912741035 0.0 -0.2963681747634497 -0.017717467466130437 0.0 -0.29079440447661203 -0.015412349770270182 0.0 -0.2841658507989329 -0.015450880996877258 0.0 -0.27969721929010166 -0.015406940007439578 0.0 -0.2741779945969568 -0.014150699138367494 0.0 -0.26794640723722307 -0.013299526616326857 0.0 -0.26305805090455797 -0.012255230811199211 0.0 -0.2598729155461388 -0.012758734796730915 0.0 -0.2538245086107259 -0.011024815736002716 0.0 -0.24928586206190195 -0.011054317802588618 0.0 -0.24581279851772775 -0.010353185698288055 0.0 -0.2416692504143124 -0.010164204853503457 0.0 -0.23658407229903872 -0.008584634158954912 0.0 -0.2316225639242624 -0.009118073465109677 0.0 -0.22867237067664115 -0.009190986133980826 0.0 -0.2232029749204485 -0.008348030719906255 0.0 -0.21932332585591433 -0.007318996277409213 0.0 -0.21434093703359033 -0.006938527891143391 0.0 -0.2099764962520307 -0.006695363557007816 0.0 -0.2804897208070197 -0.03184948609111847 0.0 -0.45823285452562035 -0.0398436845315413 0.0 -0.4940487305485011 -0.043958907309065834 0.0 -0.24852695742203326 -0.025101056002161087 0.0 -0.4257439897109587 -0.03803941323992742 0.0 -0.3045362622341684 -0.027263479747151178 0.0 -0.311402529785521 -0.0361160238696457 0.0 -0.4308188114111866 -0.04169755212316595 0.0 -0.26698960061434107 -0.028902782377885454 0.0 -0.47556335425270463 -0.0448241213762545 0.0 -0.46674437741879016 -0.03786792534130469 0.0 -0.26932597438312056 -0.023658976290624047 0.0 -0.241237987396496 -0.026834069279171525 0.0 -0.5071107978770824 -0.04987151343853468 0.0 -0.5099411330351727 -0.042987630478587224 0.0 -0.23071981199834576 -0.018014812565838142 0.0 -0.44420716880450956 -0.037962879480255965 0.0 -0.2905343075634153 -0.03138496115442507 0.0 -0.39448372803711745 -0.05371281264099463 0.0 -0.3517222034640517 -0.04897472249479729 0.0 -0.40170260283727055 -0.027358873976208394 0.0 -0.33134049100846064 -0.02154361650440433 0.0 -0.295975574121747 -0.034972828822162745 0.0 -0.44791351208204006 -0.041272741684793904 0.0 -0.487968614328084 -0.03968832825662051 0.0 -0.25156518573330505 -0.01914437800035447 0.0 -0.5155941492332021 -0.04839705990233403 0.0 -0.2287097229668608 -0.023806935906576225 0.0 -0.28799739858549805 -0.023123680915601536 0.0 -0.4417053847442033 -0.03573825443280495 0.0 -0.3736815549856618 -0.059630328120520326 0.0 -0.37113910852650295 -0.0088779405976883 0.0 -0.47395691414778357 -0.04107557380006463 0.0 -0.2667200686637861 -0.02886481641199532 0.0 -0.41440137913127634 -0.04317641840444372 0.0 -0.32627489383087505 -0.038857609163234844 0.0 -0.2842929933793669 -0.028260333728140838 0.0 -0.44938673213870994 -0.03823193157087136 0.0 -0.4880463703171372 -0.04898400292497778 0.0 -0.2577326602977543 -0.02917937998260698 0.0 -0.4264104499206161 -0.0353731322906829 0.0 -0.30710642895827606 -0.02839352297767344 0.0 -0.25250905493061415 -0.027252261359198234 0.0 -0.49041621611193104 -0.04653315461299958 0.0 -0.35257102626599324 -0.009439570732769473 0.0 -0.4164797247064909 -0.04589934785308768 0.0 -0.33108425619302095 -0.04069096465119282 0.0 -0.461815004643381 -0.04482475240021446 0.0 -0.28187302329522024 -0.033035725216386286 0.0 -0.22997487127108218 -0.027424655526458366 0.0 -0.5196017742067521 -0.05330797712076931 0.0 -0.30175063467047397 -0.033824978723282204 0.0 -0.43676785113246513 -0.0380172900229793 0.0 -0.4617187894551213 -0.04217010867153692 0.0 -0.2788225831425075 -0.03237166527394316 0.0 -0.4707165630847002 -0.037765611754713505 0.0 -0.26531384445569417 -0.017099904153454856 0.0 -0.40977687229201276 -0.03180511737794473 0.0 -0.3192463517174602 -0.022793778657666797 0.0 -0.4619158439684689 -0.039782594493373964 0.0 -0.27517369180470375 -0.027315728033570394 0.0 -0.522618430647025 -0.051142727471922805 0.0 -0.22504286061430243 -0.024328081547066713 0.0 -0.2915453264515714 -0.03174664263128623 0.0 -0.44760038823091014 -0.03909801765994354 0.0 -0.5193746010806213 -0.04114597217727401 0.0 -0.2192189122266557 -0.01287405449331515 0.0 -0.4816745872007339 -0.0410220188666116 0.0 -0.25943460768602145 -0.02449215070628963 0.0 -0.4989597695192278 -0.04072251327400463 0.0 -0.240349250542473 -0.015145852775500375 0.0 -0.3151150329666444 -0.037392732086277615 0.0 -0.4318573335182491 -0.044204653407657675 0.0 -0.22034979857758522 -0.018629667284202286 0.0 -0.5219388396662765 -0.04445412293984799 0.0 -0.3855086762176006 -0.058588730494451 0.0 -0.3619469227412955 -0.05585297407103231 0.0 -0.5019558019894913 -0.05010771541542155 0.0 -0.24734050610886119 -0.027816099357364874 0.0 -0.2951528756109175 -0.03229894418477131 0.0 -0.4424209550449723 -0.037877455653101265 0.0 -0.4749445212829159 -0.0480715869583367 0.0 -0.2688294056664639 -0.03220701947679694 0.0 -0.27813098495177885 -0.019213682952962965 0.0 -0.45243611223972857 -0.036214679491549086 0.0 -0.3018809731123231 -0.02239690747925236 0.0 -0.42494319891564336 -0.035288310829728387 0.0 -0.4986303905026624 -0.043536463114647275 0.0 -0.24417391529161359 -0.021526082160384465 0.0 -0.38565755371912264 -0.016282109586397548 0.0 -0.3862493767078895 -0.017042003965215123 0.0 -0.5032673248804329 -0.04614089200689327 0.0 -0.24377634527534112 -0.024067102990830216 0.0 -0.4829344689478967 -0.043980290895449116 0.0 -0.2575056440687334 -0.02756359174812759 0.0 -0.3450481202374339 -0.012646335048155577 0.0 -0.3325214961727478 -0.020336363869905255 0.0 -0.30072322538982754 -0.03442752937639208 0.0 -0.4432174815014121 -0.040284244291533176 0.0 -0.2952571733742263 -0.030206058723435132 0.0 -0.43799399080699136 -0.03848654945062463 0.0 -0.38499909664054965 -0.058801901870528854 0.0 -0.36521551051233014 -0.05769698732864922 0.0 -0.4089895670085403 -0.027541890471354274 0.0 -0.43882464825400863 -0.03822452506408447 0.0 -0.2913681319556899 -0.026902260061664067 0.0 -0.23306631744309433 -0.02113238861584689 0.0 -0.5099641358610354 -0.044458104448433844 0.0 -0.3001099865823655 -0.032261986402965986 0.0 -0.43941374329238175 -0.03939795264612342 0.0 -0.35808445171690473 -0.007327500644185049 0.0 -0.29562212139548105 -0.03520807018974148 0.0 -0.4489604707960495 -0.045306040592139066 0.0 -0.34362498092004484 -0.048668066534886645 0.0 -0.39959119436706797 -0.05028260015984104 0.0 -0.45518999909039964 -0.03913438445241809 0.0 -0.2780044497227684 -0.024749143354136263 0.0 -0.4833892872411681 -0.03894679038698667 0.0 -0.255334743494272 -0.015868844757357402 0.0 -0.5257784101328694 -0.04807471889452201 0.0 -0.21793313241548545 -0.021362457481081253 0.0 -0.4006437181205033 -0.05150815922458893 0.0 -0.3485791693496795 -0.04645599422781397 0.0 -0.45439499386774557 -0.04047721233539355 0.0 -0.2861286791969874 -0.033999100111253774 0.0 -0.3714993895758156 -0.008816561876901831 0.0 -0.47824076791065695 -0.03897336463333467 0.0 -0.25991023320134465 -0.021492555500839977 0.0 -0.5091731260927177 -0.040375021095641596 0.0 -0.22978028607379242 -0.012651226825583924 0.0 -0.44892245561535865 -0.03963115423911293 0.0 -0.2867406448348991 -0.031473354116421305 0.0 -0.526784325769932 -0.05256778058522335 0.0 -0.22250257786872094 -0.027197130557369706 0.0 -0.416294010679508 -0.03467902814236235 0.0 -0.31613956176686986 -0.02659661387965679 0.0 -0.4076888879415198 -0.04495215506159538 0.0 -0.33621205598999987 -0.04153332545310479 0.0 -0.2179928050433615 -0.014131338945608227 0.0 -0.5240795327125404 -0.0440929950563093 0.0 -0.2907411876097359 -0.02013562933635107 0.0 -0.43471263404768196 -0.034905104739807694 0.0 -0.46477190085779435 -0.04015117450436627 0.0 -0.2749647289586521 -0.030228054666266005 0.0 -0.39763040522794896 -0.025480909866416934 0.0 -0.3740455439398297 -0.05987394267461666 0.0 -0.2684435277871839 -0.029771979394740675 0.0 -0.4729395582106869 -0.04287057881138485 0.0 -0.23486304157914947 -0.02441116305890952 0.0 -0.5117721749194442 -0.049234671656985744 0.0 -0.4889081418627133 -0.04178279737937099 0.0 -0.2519868778974764 -0.02164289708384195 0.0 -0.2582977741250522 -0.028763787397602943 0.0 -0.4842462604386856 -0.046417179205422696 0.0 -0.4956738862337045 -0.04809142119155426 0.0 -0.2504909305599654 -0.026328049808145435 0.0 -0.26868607455190163 -0.027208396423396418 0.0 -0.4697518108194348 -0.03992893801027212 0.0 -0.33118234975746325 -0.018577948220632773 0.0 -0.4921354895186258 -0.04994737844116125 0.0 -0.25515280895724624 -0.029922571973071625 0.0 -0.42561942514123696 -0.042077850149752495 0.0 -0.3189501666691923 -0.037757341940345295 0.0 -0.42692157042114154 -0.04061902957360511 0.0 -0.3124549683353999 -0.03551992045577552 0.0 -0.42482680898746494 -0.040989247068764674 0.0 -0.31408220040087875 -0.03883028145119125 0.0 -0.22358367776475957 -0.026983074274469002 0.0 -0.5291692983744788 -0.05558746936252683 0.0 -0.4387829481161348 -0.03867323992669582 0.0 -0.2930984427067684 -0.028227381444482183 0.0 -0.4402698941819417 -0.04433755491910287 0.0 -0.3066816201882327 -0.03636576369877658 0.0 -0.43495438118127483 -0.03569587554719477 0.0 -0.3004371016412834 -0.02902378307169354 0.0 -0.48271731962253367 -0.050126004081225584 0.0 -0.26232102146213554 -0.03207510146498694 0.0 -0.5111175495985948 -0.05295316675108601 0.0 -0.23895513424960535 -0.02739705910509066 0.0 -0.27906719867572277 -0.02880859926956597 0.0 -0.4566901908855673 -0.03835883005915547 0.0 -0.4673058561183618 -0.04849667719322672 0.0 -0.27757097811220893 -0.034649478080352125 0.0 -0.42239186562952064 -0.04507482043419892 0.0 -0.3282471072909486 -0.03915215175698671 0.0 -0.2859062285127478 -0.03417710930729633 0.0 -0.45644965130579296 -0.04318061414921979 0.0 -0.2752721651691578 -0.03214872353207877 0.0 -0.4677706974431365 -0.04321770886410867 0.0 -0.48153304630093124 -0.045288613807604516 0.0 -0.25930676613652154 -0.02861162170197766 0.0 -0.2834673868945252 -0.026062633523301595 0.0 -0.44968800201648795 -0.03823815863773865 0.0 -0.37590900173412833 -0.010265066813235893 0.0 -0.23292621790423357 -0.0266555723303692 0.0 -0.5155598011059362 -0.05116012811380082 0.0 -0.42066116602036796 -0.03560771415523606 0.0 -0.3078417697874634 -0.024143678357404552 0.0 -0.5024238433894224 -0.04537459517127966 0.0 -0.24188556298215463 -0.02253006929197576 0.0 -0.49258633098477034 -0.03919017030125916 0.0 -0.24676698312997677 -0.014886680056493011 0.0 -0.37226085431175254 -0.06161929928654195 0.0 -0.2968276235500322 -0.03339707738323258 0.0 -0.4422093230625817 -0.037243397657954466 0.0 -0.46252624509930695 -0.03745481644080744 0.0 -0.271529222784473 -0.019837106005038685 0.0 -0.3129165009709082 -0.025062515553906217 0.0 -0.2463788403979281 -0.024989118980032653 0.0 -0.49995423735506966 -0.047758241309913976 0.0 -0.26961213875888523 -0.01661412127017794 0.0 -0.4626358309798516 -0.035981871918831156 0.0 -0.21611592654874112 -0.018946992578419124 0.0 -0.5278165423158556 -0.045796489264033985 0.0 -0.3463441408327691 -0.011194492749453595 0.0 -0.24964759153482982 -0.02500661508728093 0.0 -0.494613705504199 -0.045486212279037874 0.0 -0.4960344416621199 -0.0419753452082033 0.0 -0.2445478303709403 -0.018596593822363408 0.0 -0.3122493591430428 -0.02047032402149017 0.0 -0.4139643050283612 -0.03156578191874772 0.0 -0.5259835705510691 -0.04006055004404805 0.0 -0.21396347351223985 -0.009918902431044423 0.0 -0.32305537144179025 -0.037796833741752696 0.0 -0.4193290242837748 -0.04159892969059921 0.0 -0.36019444317274785 -0.008333493927463562 0.0 -0.32152238838146874 -0.024952200702878496 0.0 -0.4453993343253095 -0.0390952058201711 0.0 -0.2885318067990509 -0.03103349598354905 0.0 -0.4575821290910073 -0.04674808383377107 0.0 -0.2857610102573438 -0.03532702418431071 0.0 -0.34425647337230947 -0.015231097349798694 0.0 -0.4422489677883726 -0.038634546982105576 0.0 -0.2943363034716923 -0.032693053699852224 0.0 -0.2711488156629396 -0.028774493634129775 0.0 -0.46800854472185505 -0.040330524096168746 0.0 -0.45128093948601944 -0.036354371149721225 0.0 -0.2799210991269388 -0.02256134892952673 0.0 -0.5300624515695741 -0.05522930001400994 0.0 -0.22152183103711542 -0.026339928550561217 0.0 -0.26981442626978763 -0.03116686698578007 0.0 -0.4724492985645527 -0.04511061921262588 