<?xml version="1.0" ?>
<VTKFile byte_order="LittleEndian" type="UnstructuredGrid" version="0.1">
<UnstructuredGrid>
<Piece NumberOfCells="3478" NumberOfPoints="1836">
<Points>
<DataArray NumberOfComponents="3" format="ascii" type="Float32">0.0 0.0 0.0 0.0 30.0 0.0 90.0 0.0 0.0 90.0 30.0 0.0 45.0 14.7 0.0 45.0 19.7 0.0 45.0 9.7 0.0 44.0245483899222 19.60392640201672 0.0 43.08658283818048 19.31939766255888 0.0 42.22214883490896 18.85734806151738 0.0 41.46446609407355 18.23553390593903 0.0 40.84265193849559 17.47785116511045 0.0 40.38060233744971 16.61341716184027 0.0 40.09607359798762 15.67545161009959 0.0 40.0 14.7000000000206 0.0 40.09607359798068 13.72454838993527 0.0 40.38060233743827 12.78658283818735 0.0 40.84265193848201 11.92214883490987 0.0 41.46446609406021 11.16446609407431 0.0 42.22214883489495 10.54265193849198 0.0 43.08658283817165 10.08060233744477 0.0 44.02454838991945 9.79607359798383 0.0 45.97545161007786 9.796073597983295 0.0 46.91341716181914 10.08060233744095 0.0 47.77785116509095 10.54265193848255 0.0 48.53553390592572 11.16446609406025 0.0 49.15734806150372 11.92214883488851 0.0 49.61939766255018 12.78658283815946 0.0 49.90392640201246 13.72454838990077 0.0 50.0 14.69999999997977 0.0 49.90392640201924 15.67545161006509 0.0 49.6193976625616 16.61341716181298 0.0 49.15734806151947 17.47785116508791 0.0 48.53553390594058 18.23553390592489 0.0 47.77785116510518 18.85734806150794 0.0 46.91341716182851 19.31939766255517 0.0 45.97545161008048 19.60392640201618 0.0 0.0 1.499999999999333 0.0 0.0 2.999999999999543 0.0 0.0 4.499999999999284 0.0 0.0 5.999999999997914 0.0 0.0 7.499999999996543 0.0 0.0 8.999999999992466 0.0 0.0 10.49999999998665 0.0 0.0 11.99999999998084 0.0 0.0 13.49999999997503 0.0 0.0 14.99999999996956 0.0 0.0 16.49999999997229 0.0 0.0 17.99999999997536 0.0 0.0 19.49999999997843 0.0 0.0 20.9999999999815 0.0 0.0 22.49999999998457 0.0 0.0 23.99999999998764 0.0 0.0 25.49999999999073 0.0 0.0 26.99999999999382 0.0 0.0 28.49999999999692 0.0 90.0 1.499999999999333 0.0 90.0 2.999999999999543 0.0 90.0 4.499999999999284 0.0 90.0 5.999999999997914 0.0 90.0 7.499999999996543 0.0 90.0 8.999999999992466 0.0 90.0 10.49999999998665 0.0 90.0 11.99999999998084 0.0 90.0 13.49999999997503 0.0 90.0 14.99999999996956 0.0 90.0 16.49999999997229 0.0 90.0 17.99999999997536 0.0 90.0 19.49999999997843 0.0 90.0 20.9999999999815 0.0 90.0 22.49999999998457 0.0 90.0 23.99999999998764 0.0 90.0 25.49999999999073 0.0 90.0 26.99999999999382 0.0 90.0 28.49999999999692 0.0 1.499999999999597 30.0 0.0 2.999999999999036 30.0 0.0 4.499999999998088 30.0 0.0 5.999999999997163 30.0 0.0 7.499999999997185 30.0 0.0 8.999999999997288 30.0 0.0 10.49999999999739 30.0 0.0 11.99999999999602 30.0 0.0 13.49999999999316 30.0 0.0 14.9999999999903 30.0 0.0 16.49999999998744 30.0 0.0 17.99999999998458 30.0 0.0 19.49999999998172 30.0 0.0 20.99999999997887 30.0 0.0 22.49999999997601 30.0 0.0 23.99999999997315 30.0 0.0 25.4999999999703 30.0 0.0 26.99999999996745 30.0 0.0 28.49999999996459 30.0 0.0 29.99999999996174 30.0 0.0 31.49999999995888 30.0 0.0 32.99999999995603 30.0 0.0 34.49999999995318 30.0 0.0 35.99999999995033 30.0 0.0 37.49999999994748 30.0 0.0 38.99999999994462 30.0 0.0 40.49999999994177 30.0 0.0 41.99999999993892 30.0 0.0 43.49999999993607 30.0 0.0 44.99999999993459 30.0 0.0 46.49999999994219 30.0 0.0 47.99999999995118 30.0 0.0 49.49999999996015 30.0 0.0 50.99999999996914 30.0 0.0 52.49999999997812 30.0 0.0 53.99999999998711 30.0 0.0 55.49999999999608 30.0 0.0 57.00000000000507 30.0 0.0 58.50000000001404 30.0 0.0 60.00000000002303 30.0 0.0 61.500000000032 30.0 0.0 63.00000000004099 30.0 0.0 64.50000000004795 30.0 0.0 66.00000000004582 30.0 0.0 67.50000000004296 30.0 0.0 69.00000000004009 30.0 0.0 70.50000000003723 30.0 0.0 72.00000000003436 30.0 0.0 73.5000000000315 30.0 0.0 75.00000000002863 30.0 0.0 76.50000000002578 30.0 0.0 78.00000000002291 30.0 0.0 79.50000000002005 30.0 0.0 81.0000000000172 30.0 0.0 82.50000000001431 30.0 0.0 84.00000000001147 30.0 0.0 85.50000000000858 30.0 0.0 87.00000000000573 30.0 0.0 88.50000000000286 30.0 0.0 1.499999999999597 0.0 0.0 2.999999999999036 0.0 0.0 4.499999999998088 0.0 0.0 5.999999999997163 0.0 0.0 7.499999999997185 0.0 0.0 8.999999999997288 0.0 0.0 10.49999999999739 0.0 0.0 11.99999999999602 0.0 0.0 13.49999999999316 0.0 0.0 14.9999999999903 0.0 0.0 16.49999999998744 0.0 0.0 17.99999999998458 0.0 0.0 19.49999999998172 0.0 0.0 20.99999999997887 0.0 0.0 22.49999999997601 0.0 0.0 23.99999999997315 0.0 0.0 25.4999999999703 0.0 0.0 26.99999999996745 0.0 0.0 28.49999999996459 0.0 0.0 29.99999999996174 0.0 0.0 31.49999999995888 0.0 0.0 32.99999999995603 0.0 0.0 34.49999999995318 0.0 0.0 35.99999999995033 0.0 0.0 37.49999999994748 0.0 0.0 38.99999999994462 0.0 0.0 40.49999999994177 0.0 0.0 41.99999999993892 0.0 0.0 43.49999999993607 0.0 0.0 44.99999999993459 0.0 0.0 46.49999999994219 0.0 0.0 47.99999999995118 0.0 0.0 49.49999999996015 0.0 0.0 50.99999999996914 0.0 0.0 52.49999999997812 0.0 0.0 53.99999999998711 0.0 0.0 55.49999999999608 0.0 0.0 57.00000000000507 0.0 0.0 58.50000000001404 0.0 0.0 60.00000000002303 0.0 0.0 61.500000000032 0.0 0.0 63.00000000004099 0.0 0.0 64.50000000004795 0.0 0.0 66.00000000004582 0.0 0.0 67.50000000004296 0.0 0.0 69.00000000004009 0.0 0.0 70.50000000003723 0.0 0.0 72.00000000003436 0.0 0.0 73.5000000000315 0.0 0.0 75.00000000002863 0.0 0.0 76.50000000002578 0.0 0.0 78.00000000002291 0.0 0.0 79.50000000002005 0.0 0.0 81.0000000000172 0.0 0.0 82.50000000001431 0.0 0.0 84.00000000001147 0.0 0.0 85.50000000000858 0.0 0.0 87.00000000000573 0.0 0.0 88.50000000000286 0.0 0.0 63.37364706550937 16.50964628420433 0.0 26.62635293463404 16.50964628433121 0.0 13.41978650690528 13.45950154969383 0.0 76.58021349318176 13.45950154962137 0.0 33.45476071497805 8.290175608698323 0.0 56.54523928495111 8.290175608661723 0.0 56.52897059443286 20.86236316873536 0.0 33.47102940567571 20.86236316876138 0.0 71.2830521058756 21.04460405596809 0.0 18.71694789423233 21.04460405599743 0.0 21.41980901986561 9.070463267320616 0.0 68.58019098027053 9.07046326726413 0.0 80.99914552692991 20.97721309723637 0.0 9.000854473061795 20.97721309727302 0.0 7.870305877421703 8.018059563575596 0.0 82.12969412262107 8.018059563525435 0.0 33.7165245411982 14.65399207417489 0.0 56.28347545881759 14.65399207414136 0.0 39.97305498366637 24.34223222603792 0.0 50.02694501636432 24.34223222603521 0.0 38.06318796926433 6.581870986627434 0.0 51.65683578806563 6.660577520338367 0.0 62.64972062822329 23.28495574336215 0.0 27.35027937196879 23.28495574342431 0.0 14.97502445613706 6.824785268959483 0.0 75.02497554396214 6.824785268919009 0.0 6.787494920844402 14.64311087002373 0.0 83.2125050791834 14.64311087005626 0.0 62.74377049329286 6.199343823534628 0.0 27.25622950671565 6.19934382349436 0.0 45.000000000016 24.81766533538266 0.0 43.95657580818752 4.66610370877416 0.0 20.65769446566512 15.12449163383865 0.0 69.34230553450763 15.12449163379761 0.0 37.96200801440695 20.41720228097835 0.0 52.03799198563937 20.41720228095547 0.0 60.84525610777352 11.56302347148087 0.0 29.15474389221305 11.56302347157453 0.0 13.9479594477568 24.07830472189175 0.0 76.05204055230455 24.07830472189373 0.0 37.10725181280449 10.48234091456723 0.0 52.87039497378214 10.64738567442688 0.0 76.13945330379045 19.16176902849947 0.0 13.86054669631562 19.16176902853507 0.0 47.5363758303687 6.338689435416557 0.0 34.86428980814253 25.34552342098224 0.0 55.13571019192649 25.34552342097093 0.0 22.30941555412428 24.72828550626092 0.0 67.69058444605145 24.72828550626487 0.0 84.713423002924 24.99937419725806 0.0 5.286576997074654 24.99937419725982 0.0 53.00114321705956 17.18011225714096 0.0 36.99885678297024 17.18011225718971 0.0 23.5598838532369 20.42784805271946 0.0 66.44011614689009 20.42784805259263 0.0 19.30012895581989 4.590769543361563 0.0 70.69987104427214 4.590769543316364 0.0 34.65194187852933 4.323942427443631 0.0 55.3509190897658 4.276953815657579 0.0 24.56326495034983 12.51090819943921 0.0 65.43673504967131 12.51090819926273 0.0 4.675281458987522 18.75593683549119 0.0 85.32471854101604 18.75593683552496 0.0 59.27549643767956 17.55657731658075 0.0 30.72450356243039 17.55657731666243 0.0 4.48422503831524 4.681086215913009 0.0 85.51577496171463 4.681086215890073 0.0 17.49653004164637 11.94727187727593 0.0 72.50346995845473 11.94727187724224 0.0 10.98527091569449 4.578615553731414 0.0 79.0147290843752 4.578615553705176 0.0 58.91405463068145 25.62404760730938 0.0 31.08594536941772 25.6240476073746 0.0 85.5241378133564 10.79876961335222 0.0 4.475862186642179 10.79876961333991 0.0 42.66656627406208 22.55964308489288 0.0 47.33343372595118 22.55964308489816 0.0 9.583286029275847 25.4002693669458 0.0 80.41671397074799 25.40026936696242 0.0 53.06845121340182 13.81856388174299 0.0 36.93154878659712 13.81856388180116 0.0 17.8174374277252 25.57763591150952 0.0 72.18256257238082 25.5776359115521 0.0 66.48712173895905 4.220888897947975 0.0 23.51287826110802 4.220888897905488 0.0 59.31833062037198 4.22591876993067 0.0 30.68166937960341 4.225918769883755 0.0 11.77463693523386 9.605550025953741 0.0 78.22536306483727 9.60555002590434 0.0 41.61323298424063 7.118443406710728 0.0 40.49821449791196 3.657232821442271 0.0 10.5266603073137 16.32186666614573 0.0 79.47333969271385 16.32186666603704 0.0 16.67405390020416 15.97604740026929 0.0 73.32594609994788 15.97604740025251 0.0 49.78436784633756 3.517636631289772 0.0 49.88839936442268 8.765969189103764 0.0 60.0639438556624 21.0617009560476 0.0 29.93605614447742 21.06170095609978 0.0 55.93957776705275 11.46129603095351 0.0 34.06042223290302 11.46129603098422 0.0 42.080133866937 26.6941411693382 0.0 47.61442067123723 26.51556330917287 0.0 39.44356817596738 9.167540042382463 0.0 29.86186672815856 8.62859477986549 0.0 60.13813327177503 8.62859477979463 0.0 81.60488436417148 11.7395599460253 0.0 8.395115635915154 11.73955994604578 0.0 56.13971841765213 17.80631872018535 0.0 33.86028158239547 17.80631872019029 0.0 46.635920
[...]
<PointData>
<DataArray Name="displ" NumberOfComponents="3" format="ascii" type="Float32">-0.20888748985306432 -0.015108196407802308 0.0 -0.2102755147814243 -0.022987770530139576 0.0 -0.08133339372798191 -0.004893570766305187 0.0 -0.08298202218988293 -0.014664583426729884 0.0 -0.19361005412623247 -0.016766982497727994 0.0 -0.1426454103062994 -0.02121869064801936 0.0 -0.14074407304207262 -0.001495384419753873 0.0 -0.14798606456544622 -0.021804625682556308 0.0 -0.1526659678344022 -0.020124535015249412 0.0 -0.1592714783403374 -0.01848840090530643 0.0 -0.16149572126176331 -0.01717942618305833 0.0 -0.16533762526738566 -0.01655867972864802 0.0 -0.16820268344291878 -0.015487254470192207 0.0 -0.16954114703744544 -0.01434807970207167 0.0 -0.17088604815834577 -0.012979180120549588 0.0 -0.17047951214930956 -0.011889237039219534 0.0 -0.16977676317395526 -0.010396457780630874 0.0 -0.1659192026831974 -0.009276514507129243 0.0 -0.16261942519402253 -0.00783273849835757 0.0 -0.15819138523928858 -0.005490460595765485 0.0 -0.15202460100972504 -0.003995436106927261 0.0 -0.14519831965491728 -0.0026894008641580205 0.0 -0.13547273889029862 -0.0030598796285752623 0.0 -0.1297658030244519 -0.0037035387765441932 0.0 -0.12472487668046159 -0.004093339978594203 0.0 -0.12046699873220681 -0.005921947481687261 0.0 -0.11578914367503605 -0.009034308332389426 0.0 -0.11450604894828892 -0.011045999361923667 0.0 -0.11340951014189592 -0.012063408150404159 0.0 -0.11196519250846591 -0.012626062402070502 0.0 -0.11298078601713897 -0.013873665085235503 0.0 -0.11431603044638049 -0.0151703524414842 0.0 -0.11854124171624765 -0.016820051200896403 0.0 -0.12262957084179547 -0.018516076843017353 0.0 -0.1270878008587322 -0.02095342828431849 0.0 -0.13388313389130493 -0.021228665480623587 0.0 -0.13769651028623467 -0.021163125915203154 0.0 -0.2084316378551521 -0.01464673598810155 0.0 -0.20828279752802442 -0.015024767853354366 0.0 -0.20924452123360035 -0.015942146545206495 0.0 -0.20803761162479564 -0.016421801690650162 0.0 -0.20909148353585685 -0.016290338835344687 0.0 -0.21072604861391223 -0.015862653283329427 0.0 -0.2103427613468795 -0.015952787596147534 0.0 -0.21018131310159965 -0.016135086285480122 0.0 -0.21006445695797873 -0.016481775984452714 0.0 -0.21056819605853153 -0.01615445300530278 0.0 -0.21051730177510908 -0.017722953200144016 0.0 -0.2116790179771872 -0.017350878908757306 0.0 -0.2110513462177092 -0.01814544209564595 0.0 -0.212073686759772 -0.020115138897301658 0.0 -0.21121682722958418 -0.019996009522618936 0.0 -0.20960925890355023 -0.020531349612663268 0.0 -0.2101650247151068 -0.021365407488902807 0.0 -0.2096568805549428 -0.021485151721780966 0.0 -0.2099400186334422 -0.022022263998906517 0.0 -0.08222445759365342 -0.006444420292557733 0.0 -0.08205826954810604 -0.0070395405733049594 0.0 -0.08319052333957044 -0.007948454558519745 0.0 -0.08498901148011352 -0.008083507782693912 0.0 -0.08466791617276724 -0.008836301043524637 0.0 -0.08467255324241418 -0.010331866905327303 0.0 -0.08484972088389596 -0.01014892330390522 0.0 -0.08448677770457158 -0.0123861355300129 0.0 -0.08448205637197696 -0.012394677671059449 0.0 -0.08540636380307233 -0.01326428799952764 0.0 -0.08326004126309794 -0.012972832726028383 0.0 -0.08374513876740323 -0.014788749022826191 0.0 -0.08481101468226904 -0.01524918658793907 0.0 -0.08419636264158188 -0.013829053914254248 0.0 -0.08465527346869228 -0.014308836608923976 0.0 -0.08480693202858408 -0.01530742215079298 0.0 -0.08399809671459756 -0.014065100265803838 0.0 -0.0840481970662033 -0.014272051016614567 0.0 -0.08404951899837396 -0.014695672892202092 0.0 -0.20893785971551176 -0.021964165896401232 0.0 -0.20531057439003358 -0.021179871917459722 0.0 -0.20228811492580526 -0.01977354233973906 0.0 -0.19942147064584667 -0.018421338541143684 0.0 -0.19787784549441745 -0.017936987489965413 0.0 -0.19553912610316773 -0.01701256162323826 0.0 -0.19380744450972248 -0.017195424327762752 0.0 -0.1919064171133961 -0.016594882971623526 0.0 -0.1897505612031051 -0.0164284396906791 0.0 -0.18764996272019396 -0.01594135752523083 0.0 -0.18580975373272807 -0.015188772290657931 0.0 -0.18432424130627945 -0.016292825157789192 0.0 -0.18135063382185554 -0.016501593046633893 0.0 -0.18053349843395175 -0.016349694545925705 0.0 -0.1784034380909161 -0.017508005002453222 0.0 -0.1762035758257896 -0.0183158769246458 0.0 -0.17386830259184433 -0.01860112342083157 0.0 -0.17089965243345495 -0.01791656106178477 0.0 -0.16870071976057988 -0.018074626654299028 0.0 -0.16496427842133576 -0.017404295810571412 0.0 -0.16298158966313317 -0.017540367949701492 0.0 -0.1615575741933994 -0.018054410033596948 0.0 -0.15913936791220112 -0.018185415768703975 0.0 -0.15601896462389897 -0.017927149180424543 0.0 -0.15285383263283242 -0.018947056087770822 0.0 -0.15075215411996948 -0.01971487052826386 0.0 -0.1498572634656304 -0.020259691404477524 0.0 -0.14819834992382885 -0.021861338424903475 0.0 -0.1468518451116203 -0.023028907051860278 0.0 -0.1449922100912182 -0.023471494198747934 0.0 -0.1430508580578341 -0.023049892172709502 0.0 -0.14210281096500335 -0.02319464167138938 0.0 -0.1417984004399843 -0.020756988060334276 0.0 -0.13894996798927972 -0.019746827384022555 0.0 -0.1375329102830232 -0.018555764062111145 0.0 -0.13440042212906594 -0.01755338722875055 0.0 -0.1300346546434307 -0.01843302971331478 0.0 -0.12802790182380633 -0.01723897743771338 0.0 -0.12511204374680943 -0.016822251396113454 0.0 -0.12196081094495535 -0.015410396963975295 0.0 -0.12046260158323369 -0.01623655685879737 0.0 -0.11826256281598099 -0.01686317366071745 0.0 -0.11688564357664269 -0.01810907442448759 0.0 -0.11392489077690497 -0.01766302724975983 0.0 -0.11258467476463456 -0.019249732838044504 0.0 -0.11167814323326816 -0.018304389432977446 0.0 -0.10851044280984302 -0.01761148699344173 0.0 -0.10773037386323726 -0.01859763569149695 0.0 -0.10564809424210062 -0.016735497983058307 0.0 -0.10345823208213989 -0.018468620460257802 0.0 -0.10092062347402087 -0.01682826475658176 0.0 -0.09921067194580846 -0.016694072324468127 0.0 -0.09804962704928695 -0.01621682436836701 0.0 -0.0941428692537573 -0.015406956596030058 0.0 -0.0927818445643541 -0.015093882276695149 0.0 -0.09123007318098308 -0.015778405093870657 0.0 -0.08957807883216166 -0.016726646718965548 0.0 -0.08734812767716948 -0.015282260525898827 0.0 -0.08546724948036245 -0.014948574836171524 0.0 -0.20650567013308402 -0.015423379878742895 0.0 -0.2041776536753794 -0.015872187229137483 0.0 -0.20084060946426988 -0.015532637622270402 0.0 -0.19803062818989073 -0.01837189942608331 0.0 -0.1955723218721507 -0.01780054679328093 0.0 -0.19340026150097805 -0.01939030769683085 0.0 -0.19254201676481067 -0.02010347836308488 0.0 -0.1908063649700767 -0.019479293518923187 0.0 -0.18919367880871696 -0.02031059077298321 0.0 -0.18739453473306655 -0.019867959630642133 0.0 -0.18544996199314628 -0.01798121226979305 0.0 -0.1837713849189289 -0.018777906896716507 0.0 -0.18187927699524623 -0.017691659713734927 0.0 -0.18065591078667692 -0.018018279558170706 0.0 -0.17791861703746334 -0.016613446993164426 0.0 -0.17574856101348352 -0.017451829603242222 0.0 -0.17379152624380304 -0.01584032413195919 0.0 -0.17076112830660672 -0.016576024621698455 0.0 -0.16931769453208517 -0.015881568374462977 0.0 -0.16725962705449696 -0.015249569969704014 0.0 -0.16464368994715267 -0.014701692346864827 0.0 -0.16318755263679982 -0.01425793183794941 0.0 -0.1625509043487174 -0.013797587294524563 0.0 -0.15894221704913788 -0.012111855009200024 0.0 -0.15536215800198383 -0.010395998738803966 0.0 -0.15108132309512137 -0.009269822170038503 0.0 -0.14813297426341807 -0.0072701764604441825 0.0 -0.1461475462256081 -0.004999978693404014 0.0 -0.14335780827118264 -0.0035063807483752944 0.0 -0.13954687481698042 -0.0031342343461272957 0.0 -0.1373912754551247 -0.0022225047497976165 0.0 -0.1352270282484547 -0.004451658595817401 0.0 -0.13294579617578542 -0.003976248693983326 0.0 -0.13098860414374636 -0.004113228289407663 0.0 -0.12799887069980237 -0.00591332245444127 0.0 -0.12461494774372683 -0.00617089786314938 0.0 -0.12239611165749337 -0.00604812746283411 0.0 -0.12019056773069489 -0.004727276835776867 0.0 -0.11831974855726615 -0.005838316098379427 0.0 -0.11467220542640262 -0.0048614171083427435 0.0 -0.11210981915743565 -0.004679053756076725 0.0 -0.10936505710398843 -0.003966507992447042 0.0 -0.10829423994863788 -0.004346222450705143 0.0 -0.10700061282405009 -0.004633193886213635 0.0 -0.10464899153417208 -0.0036978624152978696 0.0 -0.10210128857331921 -0.003504715030100998 0.0 -0.10096197335798744 -0.002955447497392578 0.0 -0.09930437090084852 -0.0029531583459380486 0.0 -0.09748637739924598 -0.0021775110932078534 0.0 -0.09605250598868535 -0.0026977754098524514 0.0 -0.09457082815222397 -0.0035614663987663824 0.0 -0.09219272728165512 -0.0038447278349418037 0.0 -0.0911511792178665 -0.0034543905028663544 0.0 -0.08877507314410449 -0.004553747516464388 0.0 -0.08832201185863152 -0.004560823011179412 0.0 -0.08703892145792448 -0.005594763672039649 0.0 -0.08517350066259413 -0.005375237550532353 0.0 -0.08498145013058042 -0.005343508065890179 0.0 -0.08236198404865093 -0.003966400188506424 0.0 -0.10827374242670353 -0.014981615785585304 0.0 -0.17615880587459204 -0.016611265534968025 0.0 -0.19263363080572377 -0.01729932418358022 0.0 -0.09699536382577252 -0.014581326196118459 0.0 -0.16687745594053813 -0.0165082444916353 0.0 -0.11490410772211251 -0.009954991046136284 0.0 -0.1192080160393809 -0.01669097426254039 0.0 -0.16644307103623085 -0.01456643336699046 0.0 -0.10543533405529706 -0.016841677281565177 0.0 -0.18307241182761771 -0.01573595160465867 0.0 -0.17848246468149295 -0.017680321729660477 0.0 -0.10395459688476408 -0.011146801216928074 0.0 -0.09419791300641413 -0.01708792109108239 0.0 -0.1978089965312509 -0.018470989520809326 0.0 -0.1989123684939332 -0.017233669817818636 0.0 -0.09143566761971934 -0.010033405570506011 0.0 -0.17308075217354085 -0.014333556749382715 0.0 -0.10974527418855691 -0.013773044452894685 0.0 -0.15290816122196757 -0.018558740406800354 0.0 -0.1341148222497639 -0.019104567146438083 0.0 -0.1578271609079705 -0.010665092205201666 0.0 -0.1251902715596445 -0.00906728246140646 0.0 -0.11465924697765621 -0.018048045001425744 0.0 -0.1717138056658045 -0.0147206754934253 0.0 -0.1888475734148774 -0.01848645268749135 0.0 -0.09718329759846399 -0.009131749370663356 0.0 -0.20209394488140536 -0.017951608230924287 0.0 -0.0900249701647063 -0.015178092546116743 0.0 -0.10911912901351359 -0.008679288700894397 0.0 -0.17347227332305024 -0.015733245229142948 0.0 -0.14440071772854243 -0.021437360216964962 0.0 -0.14283538826769665 -0.0031988437905395174 0.0 -0.18248988738679267 -0.016122056511183962 0.0 -0.10438341297272145 -0.01532001620484044 0.0 -0.1598020370863265 -0.014609723064094514 0.0 -0.12512886052121192 -0.01525063275218948 0.0 -0.10734304286495844 -0.01197539109006753 0.0 -0.17538765423024358 -0.0143238441965287 0.0 -0.1883859619141991 -0.016817377997272818 0.0 -0.10120304467624315 -0.017137628022793033 0.0 -0.16543027330078153 -0.01397724164502157 0.0 -0.1158629020168519 -0.01054267171816945 0.0 -0.09963507589244795 -0.01642598816620453 0.0 -0.19013501616465084 -0.017362901531634983 0.0 -0.13413595985204624 -0.004093408893562566 0.0 -0.15974704730339886 -0.015868347855565245 0.0 -0.12810836700729142 -0.017510237395103382 0.0 -0.1787865749269468 -0.015565059089771184 0.0 -0.1110772448947909 -0.01716475027311801 0.0 -0.09048400246638688 -0.014777311109780908 0.0 -0.20378182804981557 -0.01844616920452036 0.0 -0.11423759982390419 -0.013635819196482445 0.0 -0.1677993326484563 -0.013986071511620813 0.0 -0.17838882430953545 -0.015796713201907033 0.0 -0.1093166597084604 -0.017486941126205576 0.0 -0.18086881447435296 -0.01866656619042044 0.0 -0.10190300773466093 -0.006342488698345579 0.0 -0.16166549493942858 -0.014203739249485595 0.0 -0.12100044167476501 -0.007547502860031114 0.0 -0.17827152730908985 -0.016770802387985142 0.0 -0.1058828229325681 -0.012626264961561409 0.0 -0.205602469250814 -0.018888883586929625 0.0 -0.08938019693300357 -0.014859883812997047 0.0 -0.11128202371199165 -0.015673243343277337 0.0 -0.17242749913511654 -0.014835413310470032 0.0 -0.20334615618665253 -0.016814906499631355 0.0 -0.08722756218795936 -0.007681269663028238 0.0 -0.18571839388470818 -0.01714504370930558 0.0 -0.10167498156717815 -0.01335327041575858 0.0 -0.19292114853066866 -0.01805530499831427 0.0 -0.09349724001311312 -0.006545737319917063 0.0 -0.12239131522073031 -0.016940316283234738 0.0 -0.16466722636806888 -0.01661326325327988 0.0 -0.08774390312303738 -0.011596539668132101 0.0 -0.20460242025871145 -0.01617898077158305 0.0 -0.14831644818342374 -0.0209948419427471 0.0 -0.13937197483124045 -0.019844704483017932 0.0 -0.19552634545337058 -0.01600613217118586 0.0 -0.09532516955765072 -0.015797946004061363 0.0 -0.11119677180083201 -0.013411543113401014 0.0 -0.16984977481887562 -0.014869193564923106 0.0 -0.18368401504995072 -0.01647198035817527 0.0 -0.10644740617355183 -0.016839628783276873 0.0 -0.1055098159301921 -0.006487202114364196 0.0 -0.17598037484630452 -0.01684770106705889 0.0 -0.11383146497705107 -0.007517204900501748 0.0 -0.16762748723123702 -0.016616795158845416 0.0 -0.19401011211077876 -0.0175195778222198 0.0 -0.09555902125843552 -0.011555945290680462 0.0 -0.14957441780968023 -0.005918759462281487 0.0 -0.15038467054696575 -0.008114218943229353 0.0 -0.19606674749119965 -0.0179925225084532 0.0 -0.09516206335575532 -0.014961205188091862 0.0 -0.18692182871230822 -0.016768724591551393 0.0 -0.10103330615002055 -0.01582054112969849 0.0 -0.13183710601925067 -0.004782125868141219 0.0 -0.12534357730718163 -0.008617356745868488 0.0 -0.11603391660471933 -0.016379912699705193 0.0 -0.170236143996653 -0.015500607734887584 0.0 -0.11074616787033723 -0.012304617557622317 0.0 -0.16883320061764223 -0.01534148432516806 0.0 -0.14913331722434817 -0.020649773086718667 0.0 -0.14097032313021193 -0.020906866600544468 0.0 -0.16002469605274425 -0.010892487116074327 0.0 -0.1714372659488092 -0.016314087300583806 0.0 -0.10957757807729968 -0.00971026459739861 0.0 -0.09126245107008432 -0.013025108337834585 0.0 -0.19918652657368605 -0.017022123480894668 0.0 -0.11390372329995642 -0.013925548639925204 0.0 -0.17053493499651348 -0.014080261511472405 0.0 -0.13646031716519477 -0.003476736247466026 0.0 -0.11513214897149404 -0.016711753289957297 0.0 -0.17297638250503852 -0.01560862361457599 0.0 -0.13116607020621207 -0.019030613063112753 0.0 -0.15421830276002968 -0.016630299075419196 0.0 -0.17679762147194428 -0.017010312432289985 0.0 -0.10641399222463777 -0.010260836806094199 0.0 -0.18575893984130262 -0.020225496412940868 0.0 -0.09835612633437767 -0.005261258548204881 0.0 -0.20658167933617072 -0.01744865618655571 0.0 -0.08776568216365815 -0.013778949387043634 0.0 -0.15341372315941965 -0.017789613341133763 0.0 -0.1349973835058439 -0.019127473194819958 0.0 -0.17380210158730156 -0.016524019346155223 0.0 -0.11056967993145937 -0.017884125473943448 0.0 -0.14280576428006334 -0.002728124303327785 0.0 -0.18358490772248473 -0.018502716007232828 0.0 -0.10034922711153318 -0.009890305498268552 0.0 -0.197367510140731 -0.016947130701497077 0.0 -0.0898217242056621 -0.006207778075509207 0.0 -0.17501556100427668 -0.01574349714096036 0.0 -0.10833008521644595 -0.014147854168425622 0.0 -0.20800298199218528 -0.0187918597247278 0.0 -0.08796481156056293 -0.01611369759601546 0.0 -0.16243010628141183 -0.014733218648639575 0.0 -0.1193671124541505 -0.010444532916719748 0.0 -0.158111650153497 -0.01435114953290021 0.0 -0.1288744177326471 -0.017257617770155293 0.0 -0.08624999086595511 -0.008874335013848348 0.0 -0.20486431150048726 -0.017770194205618536 0.0 -0.11033393892645628 -0.00677710417483405 0.0 -0.17043735939825166 -0.016253768300428514 0.0 -0.1780614681297651 -0.016695339305655026 0.0 -0.10769833235292535 -0.016058719490278057 0.0 -0.1566869071714607 -0.010671038340824182 0.0 -0.14412983414623182 -0.022744967782938618 0.0 -0.10576031977984125 -0.01595212710465361 0.0 -0.1827759561715977 -0.015231224657778798 0.0 -0.09305627732164909 -0.014769089035726027 0.0 -0.20111442822666617 -0.018591357946857585 0.0 -0.18954073600075752 -0.018106792994765874 0.0 -0.09757752190719962 -0.012459131764618091 0.0 -0.10188775667611401 -0.017062837876079116 0.0 -0.18704432237072513 -0.01643035262735243 0.0 -0.19243921325306748 -0.017165626345077727 0.0 -0.09849257443106253 -0.016483914039295933 0.0 -0.10441598826062581 -0.013748458109554822 0.0 -0.17949870844421958 -0.01802307064170228 0.0 -0.12647001425072457 -0.007151086443220461 0.0 -0.1906413811684191 -0.016230715703687438 0.0 -0.09932324616723201 -0.017186522730533362 0.0 -0.16320864457402598 -0.014043997115803624 0.0 -0.12339170658690918 -0.01733140674683709 0.0 -0.16527583797367043 -0.014000532197998017 0.0 -0.11973435076832967 -0.014976694437172183 0.0 -0.16277405928606425 -0.015077901604298359 0.0 -0.11968234135269808 -0.015414763415034196 0.0 -0.0869757248183413 -0.014771714723108663 0.0 -0.2064236548127354 -0.021341419789056636 0.0 -0.17171474657938254 -0.01450081239295703 0.0 -0.11047221082104564 -0.010775723074277049 0.0 -0.16802899716953681 -0.0157810375707046 0.0 -0.11915356783445034 -0.016781197580892155 0.0 -0.16852036750835628 -0.01297380183343794 0.0 -0.11290059144918968 -0.012098460452224426 0.0 -0.18679779313816725 -0.015738503464321412 0.0 -0.10368175122872421 -0.01733031262907827 0.0 -0.19831640252102914 -0.017498647270053916 0.0 -0.09248784199459972 -0.015053213148632894 0.0 -0.10711667671733448 -0.013324715148302493 0.0 -0.17652465093020872 -0.0163913458989536 0.0 -0.18070823647861928 -0.016369990753159553 0.0 -0.10889035470503806 -0.01735540924567798 0.0 -0.16180482430347848 -0.01728111350735503 0.0 -0.12767115126037729 -0.018380078958396197 0.0 -0.11187907600952823 -0.017250362063036293 0.0 -0.176327825168069 -0.015107196106917842 0.0 -0.10806575649728159 -0.017558465019989113 0.0 -0.18160570690233105 -0.015278769926419885 0.0 -0.18572365117163583 -0.016365546306917507 0.0 -0.10213613312649879 -0.016837751524094665 0.0 -0.10810320413812809 -0.01107625448565821 0.0 -0.1751415941009563 -0.015479778378281872 0.0 -0.14501654000670203 -0.004809507182154717 0.0 -0.09089879217471838 -0.01561053397356261 0.0 -0.2025917024545248 -0.018626763902031936 0.0 -0.1649471609075471 -0.015958160979149327 0.0 -0.11570434466285112 -0.00931093749707179 0.0 -0.19660301471009317 -0.01643812188129381 0.0 -0.09449964600922167 -0.014176368005756813 0.0 -0.19021501311595357 -0.0205590005521514 0.0 -0.09497530613630711 -0.005874780060550819 0.0 -0.14452474692058348 -0.02227750184611991 0.0 -0.1121771708925826 -0.01317060083457045 0.0 -0.16975491226791953 -0.01356389486416166 0.0 -0.1785946086998277 -0.018077835686117986 0.0 -0.10347553586879579 -0.0071304073125080915 0.0 -0.11843485466289022 -0.010108736597115156 0.0 -0.09586835932237785 -0.015326702649133587 0.0 -0.19437426949708286 -0.01709509350711693 0.0 -0.10332556733798959 -0.005738010213731916 0.0 -0.1789494568749334 -0.017858884954453452 0.0 -0.08675478988676742 -0.012340427673737024 0.0 -0.20786967100567852 -0.015598409046601381 0.0 -0.13054135054129967 -0.004075853653969092 0.0 -0.09699324028581123 -0.014447904274631752 0.0 -0.1923914469744553 -0.016742944857446193 0.0 -0.19238277642682544 -0.018696722922180477 0.0 -0.09511347892347774 -0.009186039307932499 0.0 -0.11838917796193969 -0.0069695007990511525 0.0 -0.16323417904179888 -0.014623827879083723 0.0 -0.206148124510433 -0.015666145784543395 0.0 -0.08527389885297446 -0.007279429508737564 0.0 -0.12424617789178727 -0.01618318894746964 0.0 -0.16151588688541652 -0.014431998513485663 0.0 -0.13756480490645603 -0.0031861838868747954 0.0 -0.12135197195800346 -0.009574830852756675 0.0 -0.1737442110107518 -0.014836776193830142 0.0 -0.10883229860047842 -0.013930652232383146 0.0 -0.17763324577069384 -0.01655753962935479 0.0 -0.11205910534165078 -0.017420190087258088 0.0 -0.13008523923333384 -0.006099074847544988 0.0 -0.17029630118297245 -0.014217968155488788 0.0 -0.11106898446631659 -0.013834911470504096 0.0 -0.10540980029206778 -0.0149245085