<?xml version="1.0" ?>
<VTKFile byte_order="LittleEndian" type="UnstructuredGrid" version="0.1">
<UnstructuredGrid>
<Piece NumberOfCells="1404" NumberOfPoints="1500">
<Points>
<DataArray NumberOfComponents="3" format="ascii" type="Float32">0.0149999997 0.0299999993 0.0 0.0149999997 0.0401869528 0.0 0.00973947905 0.0450999998 0.0 0.0 0.0450999998 0.0 0.0 0.0299999993 0.0 0.0149999997 0.0500130467 0.0 0.0149999997 0.0599999987 0.0 0.0 0.0599999987 0.0 0.0299999993 0.0299999993 0.0 0.0299999993 0.0450999998 0.0 0.0195885208 0.0450999998 0.0 0.0299999993 0.0599999987 0.0 0.0 0.0 0.0 0.0299999993 0.0 0.0 0.0299999993 0.0900000036 0.0 0.0 0.0900000036 0.0 0.00187499996 0.0299999993 0.0 0.00374999992 0.0299999993 0.0 0.00562500022 0.0299999993 0.0 0.00749999983 0.0299999993 0.0 0.00937500037 0.0299999993 0.0 0.0112500004 0.0299999993 0.0 0.0131249996 0.0299999993 0.0 0.0149999997 0.0309388097 0.0 0.0149999997 0.0315993913 0.0 0.0149999997 0.0322599746 0.0 0.0149999997 0.0329205543 0.0 0.0149999997 0.0335811377 0.0 0.0149999997 0.0342417173 0.0 0.0149999997 0.0349023007 0.0 0.0149999997 0.0355628803 0.0 0.0149999997 0.0362234637 0.0 0.0149999997 0.0368840471 0.0 0.0149999997 0.0375446267 0.0 0.0149999997 0.0382052101 0.0 0.0149999997 0.0388657898 0.0 0.0149999997 0.0395263731 0.0 0.0145518444 0.0401767567 0.0 0.0141046178 0.0402073525 0.0 0.0136620263 0.0402784906 0.0 0.0132277375 0.0403895788 0.0 0.0128053501 0.0405397005 0.0 0.012398364 0.0407276079 0.0 0.0120101506 0.0409517474 0.0 0.0116439275 0.0412102602 0.0 0.0113027301 0.0415010042 0.0 0.0109893847 0.0418215692 0.0 0.0107064871 0.042169299 0.0 0.0104563832 0.0425413139 0.0 0.0102411434 0.0429345332 0.0 0.010062553 0.0433456935 0.0 0.00992209092 0.0437713899 0.0 0.00982092042 0.0442080945 0.0 0.00975988153 0.0446521938 0.0 0.00910791382 0.0450999998 0.0 0.00847634859 0.0450999998 0.0 0.0078447843 0.0450999998 0.0 0.00721321953 0.0450999998 0.0 0.00658165431 0.0450999998 0.0 0.00595008954 0.0450999998 0.0 0.00531852478 0.0450999998 0.0 0.00468696002 0.0450999998 0.0 0.00405539526 0.0450999998 0.0 0.00342383026 0.0450999998 0.0 0.0027922655 0.0450999998 0.0 0.00216070074 0.0450999998 0.0 0.00152913586 0.0450999998 0.0 0.000897571037 0.0450999998 0.0 0.0 0.0438416675 0.0 0.0 0.0425833352 0.0 0.0 0.0413249992 0.0 0.0 0.0400666669 0.0 0.0 0.0388083346 0.0 0.0 0.0375499986 0.0 0.0 0.0362916663 0.0 0.0 0.035033334 0.0 0.0 0.0337750018 0.0 0.0 0.0325166658 0.0 0.0 0.0312583335 0.0 0.00975988153 0.0455478057 0.0 0.00982092042 0.045991905 0.0 0.00992209092 0.0464286096 0.0 0.010062553 0.046854306 0.0 0.0102411434 0.0472654663 0.0 0.0104563832 0.0476586856 0.0 0.0107064871 0.0480307005 0.0 0.0109893847 0.0483784303 0.0 0.0113027301 0.0486989953 0.0 0.0116439275 0.0489897393 0.0 0.0120101506 0.0492482521 0.0 0.012398364 0.0494723916 0.0 0.0128053501 0.049660299 0.0 0.0132277375 0.0498104207 0.0 0.0136620263 0.0499215089 0.0 0.0141046178 0.049992647 0.0 0.0145518444 0.0500232428 0.0 0.0149999997 0.0506606586 0.0 0.0149999997 0.0513082705 0.0 0.0149999997 0.0519558825 0.0 0.0149999997 0.0526034944 0.0 0.0149999997 0.05325111 0.0 0.0149999997 0.0538987219 0.0 0.0149999997 0.0545463338 0.0 0.0149999997 0.0551939458 0.0 0.0149999997 0.0558415577 0.0 0.0149999997 0.0564891733 0.0 0.0149999997 0.0571367852 0.0 0.0149999997 0.0577843972 0.0 0.0149999997 0.0584320091 0.0 0.0149999997 0.059079621 0.0 0.0131249996 0.0599999987 0.0 0.0112500004 0.0599999987 0.0 0.00937500037 0.0599999987 0.0 0.00749999983 0.0599999987 0.0 0.00562500022 0.0599999987 0.0 0.00374999992 0.0599999987 0.0 0.00187499996 0.0599999987 0.0 0.0 0.0587583333 0.0 0.0 0.057516668 0.0 0.0 0.0562749989 0.0 0.0 0.0550333336 0.0 0.0 0.0537916683 0.0 0.0 0.0525499992 0.0 0.0 0.0513083339 0.0 0.0 0.0500666648 0.0 0.0 0.0488249995 0.0 0.0 0.0475833341 0.0 0.0 0.0463416651 0.0 0.0195713751 0.0446894132 0.0 0.0195200555 0.0442816839 0.0 0.0194349196 0.0438796543 0.0 0.0193165597 0.0434861258 0.0 0.0191658027 0.0431038328 0.0 0.0189836938 0.0427354388 0.0 0.0187715068 0.0423835143 0.0 0.0185307153 0.0420505032 0.0 0.0182629973 0.0417387299 0.0 0.0179702155 0.0414503627 0.0 0.0176544115 0.041187413 0.0 0.0173177831 0.0409517065 0.0 0.0169626754 0.0407448858 0.0 0.0165915582 0.0405683964 0.0 0.0162070207 0.040423464 0.0 0.0158117376 0.0403110944 0.0 0.0154084601 0.0402320772 0.0 0.0168750007 0.0299999993 0.0 0.0187500007 0.0299999993 0.0 0.0206250008 0.0299999993 0.0 0.0225000009 0.0299999993 0.0 0.0243749991 0.0299999993 0.0 0.0262499992 0.0299999993 0.0 0.0281249993 0.0299999993 0.0 0.0299999993 0.0312583335 0.0 0.0299999993 0.0325166658 0.0 0.0299999993 0.0337750018 0.0 0.0299999993 0.035033334 0.0 0.0299999993 0.0362916663 0.0 0.0299999993 0.0375499986 0.0 0.0299999993 0.0388083346 0.0 0.0299999993 0.0400666669 0.0 0.0299999993 0.0413249992 0.0 0.0299999993 0.0425833352 0.0 0.0299999993 0.0438416675 0.0 0.0290404987 0.0450999998 0.0 0.0283653568 0.0450999998 0.0 0.0276902169 0.0450999998 0.0 0.0270150751 0.0450999998 0.0 0.0263399333 0.0450999998 0.0 0.0256647933 0.0450999998 0.0 0.0249896515 0.0450999998 0.0 0.0243145097 0.0450999998 0.0 0.0236393698 0.0450999998 0.0 0.0229642279 0.0450999998 0.0 0.0222890861 0.0450999998 0.0 0.0216139443 0.0450999998 0.0 0.0209388044 0.0450999998 0.0 0.0202636626 0.0450999998 0.0 0.0281249993 0.0599999987 0.0 0.0262499992 0.0599999987 0.0 0.0243749991 0.0599999987 0.0 0.0225000009 0.0599999987 0.0 0.0206250008 0.0599999987 0.0 0.0187500007 0.0599999987 0.0 0.0168750007 0.0599999987 0.0 0.0154084601 0.049967926 0.0 0.0158117376 0.0498889051 0.0 0.0162070207 0.0497765355 0.0 0.0165915582 0.0496316031 0.0 0.0169626754 0.0494551137 0.0 0.0173177831 0.049248293 0.0 0.0176544115 0.0490125902 0.0 0.0179702155 0.0487496369 0.0 0.0182629973 0.0484612696 0.0 0.0185307153 0.0481494963 0.0 0.0187715068 0.0478164889 0.0 0.0189836938 0.0474645607 0.0 0.0191658027 0.0470961705 0.0 0.0193165597 0.0467138775 0.0 0.0194349196 0.0463203453 0.0 0.0195200555 0.0459183156 0.0 0.0195713751 0.0455105864 0.0 0.0299999993 0.0463416651 0.0 0.0299999993 0.0475833341 0.0 0.0299999993 0.0488249995 0.0 0.0299999993 0.0500666648 0.0 0.0299999993 0.0513083339 0.0 0.0299999993 0.0525499992 0.0 0.0299999993 0.0537916683 0.0 0.0299999993 0.0550333336 0.0 0.0299999993 0.0562749989 0.0 0.0299999993 0.057516668 0.0 0.0299999993 0.0587583333 0.0 0.0 0.0270000007 0.0 0.0 0.0240000002 0.0 0.0 0.0209999997 0.0 0.0 0.0179999992 0.0 0.0 0.0149999997 0.0 0.0 0.0120000001 0.0 0.0 0.00899999961 0.0 0.0 0.00600000005 0.0 0.0 0.00300000003 0.0 0.00187499996 0.0 0.0 0.00374999992 0.0 0.0 0.00562500022 0.0 0.0 0.00749999983 0.0 0.0 0.00937500037 0.0 0.0 0.0112500004 0.0 0.0 0.0131249996 0.0 0.0 0.0149999997 0.0 0.0 0.0168750007 0.0 0.0 0.0187500007 0.0 0.0 0.0206250008 0.0 0.0 0.0225000009 0.0 0.0 0.0243749991 0.0 0.0 0.0262499992 0.0 0.0 0.0281249993 0.0 0.0 0.0299999993 0.00300000003 0.0 0.0299999993 0.00600000005 0.0 0.0299999993 0.00899999961 0.0 0.0299999993 0.0120000001 0.0 0.0299999993 0.0149999997 0.0 0.0299999993 0.0179999992 0.0 0.0299999993 0.0209999997 0.0 0.0299999993 0.0240000002 0.0 0.0299999993 0.0270000007 0.0 0.0299999993 0.063000001 0.0 0.0299999993 0.0659999996 0.0 0.0299999993 0.0689999983 0.0 0.0299999993 0.0719999969 0.0 0.0299999993 0.075000003 0.0 0.0299999993 0.0780000016 0.0 0.0299999993 0.0810000002 0.0 0.0299999993 0.0839999989 0.0 0.0299999993 0.0869999975 0.0 0.0281249993 0.0900000036 0.0 0.0262499992 0.0900000036 0.0 0.0243749991 0.0900000036 0.0 0.0225000009 0.0900000036 0.0 0.0206250008 0.0900000036 0.0 0.0187500007 0.0900000036 0.0 0.0168750007 0.0900000036 0.0 0.0149999997 0.0900000036 0.0 0.0131249996 0.0900000036 0.0 0.0112500004 0.0900000036 0.0 0.00937500037 0.0900000036 0.0 0.00749999983 0.0900000036 0.0 0.00562500022 0.0900000036 0.0 0.00374999992 0.0900000036 0.0 0.00187499996 0.0900000036 0.0 0.0 0.0869999975 0.0 0.0 0.0839999989 0.0 0.0 0.0810000002 0.0 0.0 0.0780000016 0.0 0.0 0.075000003 0.0 0.0 0.0719999969 0.0 0.0 0.0689999983 0.0 0.0 0.0659999996 0.0 0.0 0.063000001 0.0 0.00240605418 0.0317476094 0.0 0.0132285897 0.0308372527 0.0 0.0114639541 0.0308285281 0.0 0.00970989279 0.0308664478 0.0 0.00796741433 0.030946292 0.0 0.00622726884 0.0310834199 0.0 0.00444168784 0.0313186944 0.0 0.0115238708 0.0404538177 0.0 0.0110589247 0.0399643853 0.0 0.0105802957 0.0394543298 0.0 0.0100896806 0.0389274582 0.0 0.00958756451 0.0383866653 0.0 0.00907252356 0.0378334895 0.0 0.00854044221 0.0372676216 0.0 0.00798357651 0.0366861634 0.0 0.00738931261 0.0360825956 0.0 0.00673822826 0.0354451761 0.0 0.00600026548 0.0347540006 0.0 0.00512524834 0.0339741185 0.0 0.00401390065 0.0330347866 0.0 0.000793838175 0.0438955426 0.0 0.000772442494 0.0426918976 0.0 0.000783006602 0.0414899141 0.0 0.000811753387 0.0402907245 0.0 0.000856733182 0.0390956625 0.0 0.000921554572 0.037906155 0.0 0.00101479655 0.0367233306 0.0 0.00115271518 0.0355465077 0.0 0.00136729016 0.0343677737 0.0 0.00172855402 0.0331514254 0.0 0.0133339632 0.0315873995 0.0 0.0134397261 0.0323022977 0.0 0.0135442559 0.032998085 0.0 0.0136464294 0.0336812399 0.0 0.013745822 0.0343553573 0.0 0.013842525 0.0350228548 0.0 0.0139368745 0.0356853306 0.0 0.0140292263 0.0363436677 0.0 0.0141198216 0.0369979888 0.0 0.0142087657 0.0376475193 0.0 0.0142960874 0.0382902175 0.0 0.0143820234 0.0389216021 0.0 0.0144678745 0.0395311117 0.0 0.0116815548 0.0316202343 0.0 0.011899055 0.0323765688 0.0 0.0121123437 0.033103589 0.0 0.0123189483 0.0338073969 0.0 0.0125182495 0.0344934613 0.0 0.0127108386 0.0351662561 0.0 0.0128977867 0.0358290039 0.0 0.0130801173 0.0364835784 0.0 0.0132585336 0.0371304527 0.0 0.0134333326 0.0377685912 0.0 0.0136044715 0.0383952036 0.0 0.0137717454 0.0390052013 0.0 0.0139350798 0.0395906046 0.0 0.0100520272 0.0317044854 0.0 0.010392216 0.0325013697 0.0 0.0107216369 0.0332574546 0.0 0.01103618 0.0339790136 0.0 0.0113357538 0.0346737355 0.0 0.0116223767 0.0353484601 0.0 0.011898635 0.0360082686 0.0 0.0121667851 0.0366562307 0.0 0.0124283545 0.03
[...]
<PointData>
<DataArray Name="displ" NumberOfComponents="3" format="ascii" type="Float32">-4.255328368043308e-05 0.0005688093453129981 0.0 -5.259951768542378e-05 0.0005812196921894851 0.0 -8.673344164932725e-06 0.0007265183450018027 0.0 -3.511383615392922e-06 0.0007191374332720893 0.0 -2.66557134634559e-05 0.0006056454736541854 0.0 -6.61946160582518e-05 0.0008766574101361517 0.0 -7.027807365863578e-05 0.0008941716422563467 0.0 -5.730848834303565e-05 0.000836569663306566 0.0 -6.241427764965637e-05 0.0006307111440775535 0.0 -0.000110859165663737 0.000739887703483719 0.0 -0.00010626348206389031 0.0007312198609954386 0.0 -8.175445336687722e-05 0.0008514626201403655 0.0 -4.7617654456556075e-06 0.0004179158663612646 0.0 -3.4958728267931115e-05 0.0004357734531590336 0.0 -9.815779017565852e-05 0.001044486853600466 0.0 -6.56169471580719e-05 0.0010399263283747478 0.0 -2.769706494848927e-05 0.0006046836687003505 0.0 -3.041040646174575e-05 0.0006025592887677158 0.0 -3.362377296159666e-05 0.0005985842614869448 0.0 -3.639051454043402e-05 0.000591192232546899 0.0 -3.770707495018622e-05 0.0005822607003303782 0.0 -4.0174454309018294e-05 0.0005736127971576607 0.0 -4.28872585997179e-05 0.0005686536328069626 0.0 -4.398456158108276e-05 0.0005710540817921172 0.0 -4.4915306997601466e-05 0.0005723850298301255 0.0 -4.584947085906083e-05 0.000573912302702324 0.0 -4.647609191894864e-05 0.0005753281555379092 0.0 -4.68856318727949e-05 0.0005765148764675887 0.0 -4.778809974331261e-05 0.0005772781416017054 0.0 -4.802048353352066e-05 0.0005781154776444597 0.0 -4.868158590424023e-05 0.0005787727283372225 0.0 -4.906394108914862e-05 0.0005790883773700582 0.0 -4.9349706105227936e-05 0.0005796502489970254 0.0 -4.996561698510184e-05 0.0005800543814330796 0.0 -5.077230062970635e-05 0.0005804139130006971 0.0 -5.141354352526554e-05 0.0005807237040834063 0.0 -5.190507018077885e-05 0.00058124755953216 0.0 -4.99907308242358e-05 0.0005812113817087296 0.0 -4.742153496964636e-05 0.0005818369861393353 0.0 -4.485870757546395e-05 0.0005828983535625648 0.0 -4.238197812866001e-05 0.000585616522198098 0.0 -3.9805685603707984e-05 0.000590369469471557 0.0 -3.684982556237088e-05 0.0005964034876431337 0.0 -3.3067539756900464e-05 0.0006025847676337594 0.0 -2.91361616920808e-05 0.0006105579375583379 0.0 -2.57311559539471e-05 0.0006197358161408566 0.0 -2.2916256038375894e-05 0.0006298391785823024 0.0 -2.0579718036127827e-05 0.000640201408661608 0.0 -1.846745148003905e-05 0.0006518779712579103 0.0 -1.6649728768477168e-05 0.0006641039151850486 0.0 -1.47384124885297e-05 0.0006766723521064293 0.0 -1.2744607827827518e-05 0.0006895803506502029 0.0 -1.1492475795041232e-05 0.0007021746874161115 0.0 -1.0306065736585081e-05 0.0007144072882183484 0.0 -1.1179020859151645e-05 0.0007255194301084011 0.0 -1.0787809383334689e-05 0.000724944140708095 0.0 -1.0250863678497171e-05 0.00072457532206432 0.0 -9.245163426026433e-06 0.00072406891590724 0.0 -8.676976473437408e-06 0.0007239400926886128 0.0 -8.64548843636954e-06 0.0007229995662360934 0.0 -8.292737176813097e-06 0.0007226792857778797 0.0 -7.3761336009001575e-06 0.0007221107799756453 0.0 -6.717711260633303e-06 0.0007219222704197902 0.0 -6.281143781759632e-06 0.000721471956126651 0.0 -5.2590636077208945e-06 0.0007213499363592384 0.0 -4.823678614436542e-06 0.0007206730072502681 0.0 -4.310385111390999e-06 0.00072033245484112 0.0 -4.03468585194705e-06 0.0007194096818084586 0.0 -3.293135757717051e-06 0.0007109391970292632 0.0 -5.278847636395175e-06 0.000703471493493859 0.0 -7.763991811524195e-06 0.000694849614750226 0.0 -1.1549548538276907e-05 0.0006851577435614647 0.0 -1.6866684986422775e-05 0.0006757385087768194 0.0 -2.1146194774059417e-05 0.0006661805060246514 0.0 -2.419211711590167e-05 0.0006557008163973489 0.0 -2.6105031179776475e-05 0.000646145419708926 0.0 -2.6717634405761263e-05 0.0006360797142775591 0.0 -2.735285834867001e-05 0.0006266570898805591 0.0 -2.65061368997975e-05 0.0006159055020858928 0.0 -9.878498522394299e-06 0.0007387484545596181 0.0 -1.2507763886196386e-05 0.0007512127426576503 0.0 -1.4577037558813305e-05 0.0007631862527452418 0.0 -1.722420587250814e-05 0.000775061697463089 0.0 -2.164147182361948e-05 0.000786101552153614 0.0 -2.5410333748509436e-05 0.0007985136251653577 0.0 -2.9617116926747813e-05 0.0008112016232502991 0.0 -3.3642502310596886e-05 0.0008234506160506615 0.0 -3.773237652018273e-05 0.0008336599861972296 0.0 -4.1064359254776046e-05 0.0008431880749244816 0.0 -4.4551610093808834e-05 0.0008513922567902205 0.0 -4.802813170348219e-05 0.0008588665611970138 0.0 -5.160729467484815e-05 0.0008649800062416196 0.0 -5.5288513959283915e-05 0.0008699051793636609 0.0 -5.83498602925677e-05 0.0008734146775456486 0.0 -6.124830749096999e-05 0.0008760043049269934 0.0 -6.391148519473924e-05 0.0008771662181005542 0.0 -6.611647743611685e-05 0.0008767329396184321 0.0 -6.570041830619177e-05 0.0008773876165782343 0.0 -6.545082568042832e-05 0.0008775970418997737 0.0 -6.549257220107713e-05 0.0008779530130157544 0.0 -6.580730750680815e-05 0.000878512075053384 0.0 -6.612880409582958e-05 0.0008789622731562892 0.0 -6.65137057316722e-05 0.000880040786572925 0.0 -6.693076478433297e-05 0.0008813824537325618 0.0 -6.763261923458061e-05 0.0008824939810710891 0.0 -6.798745140248055e-05 0.0008840042960902392 0.0 -6.842840898223064e-05 0.0008856813353124357 0.0 -6.861610089146954e-05 0.0008873224632335917 0.0 -6.8897099750013e-05 0.0008889965347619617 0.0 -6.931721350012459e-05 0.0008909601028400095 0.0 -6.90476471233322e-05 0.0008920243811722981 0.0 -6.822675082792199e-05 0.0008851036493582031 0.0 -6.746349318269233e-05 0.0008732654717401032 0.0 -6.481074281020627e-05 0.0008608094581255137 0.0 -6.262187847879391e-05 0.0008509518107576974 0.0 -6.007892266624167e-05 0.0008441549116163194 0.0 -5.721616343897117e-05 0.0008390519352447356 0.0 -5.533078527714211e-05 0.0008264177324355103 0.0 -5.285064292428021e-05 0.0008171824655096329 0.0 -5.0941895830737443e-05 0.0008065656775823903 0.0 -4.796499992918847e-05 0.0007969121395405871 0.0 -4.341240691431468e-05 0.0007861491766156854 0.0 -3.88310889066e-05 0.0007757112150080856 0.0 -3.246877498781215e-05 0.0007646406323875449 0.0 -2.512179098626223e-05 0.0007545033031785615 0.0 -1.815200392042375e-05 0.0007452814175223891 0.0 -1.1137206312365572e-05 0.0007363489566069746 0.0 -6.439013631312454e-06 0.0007277392458357243 0.0 -0.00010398522565705889 0.0007224447341009755 0.0 -0.00010249611544277329 0.0007122663876579252 0.0 -0.00010029680844271497 0.0007018791907848679 0.0 -9.57908140893618e-05 0.0006911236549796823 0.0 -9.304616570883447e-05 0.0006792771872756893 0.0 -9.099785985475718e-05 0.00066747474691188 0.0 -8.743340799990848e-05 0.0006563047747728866 0.0 -8.305339737435305e-05 0.0006457115607099711 0.0 -8.006308852797664e-05 0.000635891125515393 0.0 -7.649474116062914e-05 0.0006253047960904617 0.0 -7.305576610372437e-05 0.0006147083646530157 0.0 -7.019593271778704e-05 0.0006056011414203211 0.0 -6.749675644568375e-05 0.0005990138095913978 0.0 -6.456572479919774e-05 0.0005924700200928813 0.0 -6.132859522215887e-05 0.0005876999649416356 0.0 -5.8224651020989406e-05 0.0005845983765264048 0.0 -5.530522704046203e-05 0.0005821904370901936 0.0 -4.480196066065438e-05 0.0005737454670567281 0.0 -4.648934624470462e-05 0.000583381930662207 0.0 -4.862511732107223e-05 0.0005966094211747023 0.0 -5.176651187333333e-05 0.0006091972266349708 0.0 -5.3951487646523204e-05 0.00061786886400974 0.0 -5.669545402171574e-05 0.0006242350666750167 0.0 -6.00656673394024e-05 0.0006290343196185936 0.0 -6.476947521852644e-05 0.0006397858947761937 0.0 -6.716410781552339e-05 0.0006491011674412056 0.0 -6.993409741541331e-05 0.0006573188136774269 0.0 -7.421508876697879e-05 0.0006665737438451843 0.0 -7.760838374431935e-05 0.0006762532563717053 0.0 -8.167596047602981e-05 0.0006862953317111383 0.0 -8.653154492643701e-05 0.0006962467812481238 0.0 -9.278489642578211e-05 0.0007057458109773379 0.0 -9.850127336291627e-05 0.0007139440869051715 0.0 -0.00010365703314839688 0.0007222115773745753 0.0 -0.00010795135458527653 0.0007309612023583168 0.0 -0.00010969087296730738 0.0007396178738663752 0.0 -0.00010914390583031018 0.0007391903766598639 0.0 -0.00010837245857209092 0.0007385408507278499 0.0 -0.0001075080284292478 0.0007379522359054165 0.0 -0.00010688520232737101 0.0007375098292791755 0.0 -0.000106083105494173 0.0007367420646360367 0.0 -0.00010498361322856356 0.0007364637717824792 0.0 -0.00010423991218195775 0.0007359333085843392 0.0 -0.0001037072266983059 0.0007349764878056384 0.0 -0.00010344754938554445 0.0007341375745952583 0.0 -0.00010329209507372854 0.0007335405651208423 0.0 -0.0001029643884995393 0.000733237703662792 0.0 -0.00010277424752147112 0.0007324739369027549 0.0 -0.00010313320719191174 0.0007317720872188707 0.0 -8.117016103240727e-05 0.0008518179831018725 0.0 -7.936687509247739e-05 0.0008538525556732273 0.0 -7.758130331814965e-05 0.0008576059253290056 0.0 -7.55432217900927e-05 0.0008632070589474909 0.0 -7.35531916832441e-05 0.0008720770471767819 0.0 -7.180582193735045e-05 0.0008822557622288005 0.0 -7.108622536937581e-05 0.0008904028049339989 0.0 -6.823496638368606e-05 0.0008753067331339979 0.0 -7.059693685670135e-05 0.0008732294028265806 0.0 -7.319701738691745e-05 0.0008695846511873202 0.0 -7.546212523169303e-05 0.0008642301386415496 0.0 -7.795017140927304e-05 0.0008583057549094722 0.0 -8.010846456481855e-05 0.0008502900413553564 0.0 -8.273583024432922e-05 0.0008417675051774352 0.0 -8.530246725838471e-05 0.0008333086890809811 0.0 -8.782938551673299e-05 0.0008237471875076895 0.0 -9.029770685865294e-05 0.0008141003219269057 0.0 -9.294881419868196e-05 0.0008039297778412213 0.0 -9.575081870428558e-05 0.0007936350363460787 0.0 -9.820965159752074e-05 0.0007833791851350604 0.0 -9.948599793212425e-05 0.0007712590142978235 0.0 -0.00010103040640667994 0.0007602494011480492 0.0 -0.00010232357195832215 0.0007500353899453172 0.0 -0.00010448405495112354 0.00074030428206004 0.0 -0.00011073002586375298 0.0007484273892029603 0.0 -0.00011027211405514657 0.0007566745523064976 0.0 -0.00010642015936111128 0.0007650811906241077 0.0 -0.00010184433066377807 0.0007741515767961153 0.0 -9.720607161002609e-05 0.0007834462641089249 0.0 -9.166134623240328e-05 0.0007933960067875755 0.0 -8.771431391846904e-05 0.0008033662010947701 0.0 -8.604324266779419e-05 0.000813632795580847 0.0 -8.492911872126496e-05 0.0008232175995771859 0.0 -8.263838031698352e-05 0.0008327259612912656 0.0 -8.171989440519415e-05 0.0008421086379968128 0.0 -2.5022026129941054e-05 0.0005817122827519889 0.0 -2.2433569207155795e-05 0.000560979237797138 0.0 -1.9661324314686902e-05 0.0005384965263036883 0.0 -1.800302711344018e-05 0.0005192504047651872 0.0 -1.5451783797883505e-05 0.0004988408796164491 0.0 -1.3426758617079167e-05 0.00048133213062214104 0.0 -1.1541033969026219e-05 0.00046312415458547824 0.0 -9.383591316427673e-06 0.0004474521591297389 0.0 -5.898457344212668e-06 0.0004290233953753065 0.0 -6.133321112699191e-06 0.0004190462229007904 0.0 -8.242451794130527e-06 0.00042041737853868593 0.0 -9.687308542579904e-06 0.0004220087793181617 0.0 -1.1541216919200174e-05 0.00042182582846123513 0.0 -1.317104126553356e-05 0.0004217890958867145 0.0 -1.4413097656536136e-05 0.0004224118097626984 0.0 -1.7766324552208756e-05 0.00042302973414181977 0.0 -1.8834910611542076e-05 0.000422742690350938 0.0 -2.090422525806634e-05 0.00042461099836177613 0.0 -2.4229712182948826e-05 0.0004275722557767615 0.0 -2.5504372590051204e-05 0.0004281820960936119 0.0 -2.797998181193734e-05 0.0004297492599794198 0.0 -3.12660814922027e-05 0.00043161294101751597 0.0 -3.255452168936603e-05 0.0004336234926663917 0.0 -3.2355242931716496e-05 0.00043511636306516944 0.0 -3.5562544170307545e-05 0.0004483912082304126 0.0 -3.860006919734767e-05 0.00046875412698318915 0.0 -4.153608234127693e-05 0.00048662198005277967 0.0 -4.268446839245132e-05 0.0005077476282701991 0.0 -4.413736990315797e-05 0.0005256718460513295 0.0 -4.817603836537179e-05 0.0005469955410384435 0.0 -5.008073188029865e-05 0.0005667964348114616 0.0 -5.2013801763178464e-05 0.0005880202265758106 0.0 -5.575360455718873e-05 0.0006086767679708663 0.0 -8.199882130637356e-05 0.0008740248863278612 0.0 -8.327441203510054e-05 0.0008967819715582301 0.0 -8.405105353334152e-05 0.0009180831871547651 0.0 -8.528884161108697e-05 0.0009391867264293825 0.0 -8.61359193539928e-05 0.0009573953513894712 0.0 -8.775662124031046e-05 0.0009759568078250193 0.0 -9.026263416475041e-05 0.0009943416973430834 0.0 -9.363784851117511e-05 0.0010149209771605475 0.0 -9.70846506971001e-05 0.0010328626169158336 0.0 -9.732201474479505e-05 0.0010462494220371855 0.0 -9.631546164356345e-05 0.0010465555695605589 0.0 -9.449821166363625e-05 0.00104666288336544 0.0 -9.202408922915161e-05 0.0010471428367434608 0.0 -9.07863949564882e-05 0.0010474804728840856 0.0 -8.761652833466796e-05 0.0010478849129667248 0.0 -8.558518581874101e-05 0.001047520190751617 0.0 -8.291779098676683e-05 0.0010466263823253974 0.0 -7.951933277834978e-05 0.0010472411387818935 0.0 -7.721984822027212e-05 0.001046383212664793 0.0 -7.434819864311753e-05 0.0010461740191110948 0.0 -7.131548178326749e-05 0.0010449933545462376 0.0 -7.01718528689451e-05 0.0010438573980482923 0.0 -6.802061512583062e-05 0.001042609629659509 0.0 -6.569176705414089e-05 0.0010401295613202978 0.0 -6.49574549403621e-05 0.0010251770455385007 0.0 -6.585826475191816e-05 0.0010059033967551026 0.0 -6.63448279297735e-05 0.000986720492242311 0.0 -6.645031880351445e-05 0.0009688207236129809 0.0 -6.628804923752076e-05 0.0009482574646073938 0.0 -6.558812168258417e-05 0.0009265188067874608 0.0 -6.202272956198123e-05 0.000901238311143025 0.0 -6.0910758735449724e-05 0.0008787988669188197 0.0 -5.9433031391786135e-05 0.0008567784516989178 0.0 -2.961297576110086e-05 0.0006184257196957307 0.0 -4.2380981683422266e-05 0.0005709495638334656 0.0 -4.118216132735624e-05 0.0005760842246160657 0.0 -3.947444004260558e-05 0.0005851462968352361 0.0 -3.7064877098854825e-05 0.0005954263355582056 0.0 -3.515034615012287e-05 0.0006045787408261179 0.0 -3.2116015985042414e-05 0.000611202699705414 0.0 -3.286713348829129e-05 0.0006059365768168955 0.0 -3.387964815522556e-05 0.0006105297561393338 0.0 -3.528101306598316e-05 0.0006151211492542465 0.0 -3.669492596451267e-05 0.0006208270941019785 0.0 -3.723030882596943e-05 0.0006262181651291011 0.0 -3.695784488570392e-05 0.0006304570209604665 0.0 -3.667125623835256e-05 0.0006329793273030398 0.0 -3.6396998939418775e-05 0.0006340438363990046 0.0 -3.656249303787204e-05 0.0006345839961344816 0.0 -3.5651492407814645e-05 0.0006336284165459279 0.0 -3.457068475010439e-05 0.0006318663398268975 0.0 -3.358570142725714e-05 0.0006288242352026736 0.0 -3.1297359304170626e-05 0.0006252158919224293 0.0 -3.082855691560842e-06 0.0007116680304009758 0.0 -5.041951235326446e-06 0.0007035985241320304 0.0 -7.457796612762964e-06 0.0006955457820921845 0.0 -1.0877735341849406e-05 0.0006862173882604282 0.0 -1.5929982025273375e-05 0.0006770711890424798 0.0 -1.9960194522445374e-05 0.0006682229902752596 0.0 -2.3326471889239456e-05 0.0006586185573020249 0.0 -2.5271652983860423e-05 0.0006495039493004332 0.0 -2.720267292337135e-05 0.0006399460571926124 0.0 -2.8332464751406927e-05 0.0006303489968536458 0.0 -4.3614599628408924e-05 0.0005730054611606756 0.0 -4.48724370630516e-05 0.0005743237955543773 0.0 -4.546617438402542e-05 0.0005756305519960254 0.0 -4.565822402106137e-05 0.0005766791319028179 0.0 -4.619379240196619e-05 0.0005777698788235785 0.0 -4.7252900331919655e-05 0.0005787755857481663 0.0 -4.7932354650245147e-05 0.0005790768910632228 0.0 -4.850025411023734e-05 0.0005793577048717652 0.0 -4.876117729466731e-05 0.0005796242802737775 0.0 -4.9515152050886885e-05 0.0005797174412241726 0.0 -4.927705785918868e-05 0.0005800576350067961 0.0 -4.967732047222181e-05 0.0005804667176723805 0.0 -4.979535891871261e-05 0.000580982307338145 0.0 -4.195572740650031e-05 0.0005777741456641912 0.0 -4.304767159298703e-05 0.0005792406287527136 0.0 -4.3492050918212005e-05 0.0005803889744139336 0.0 -4.415517149068775e-05 0.0005810580058297506 0.0 -4.5046283481440526e-05 0.0005816595797255508 0.0 -4.5724718295846235e-05 0.0005819684213631284 0.0 -4.639589398991766e-05 0.0005820554938289465 0.0 -4.744822610018505e-05 0.0005823367806172112 0.0 -4.762084033769564e-05 0.0005820394019439593 0.0 -4.7247810541436036e-05 0.0005815845987920306 0.0 -4.691050954337205e-05 0.0005814435267323245 0.0 -4.677470106087359e-05 0.0005817284910080606 0.0 -4.7145141071145607e-05 0.0005818656464399571 0.0 -4.032448303001028e-05 0.0005870956576949448 0.0 -4.146677428501163e-05 0.0005887655416219181 0.0 -4.1956365658008093e-05 0.0005895989206224202 0.0 -4.289776656795515e-05 0.0005894962272703288 0.0 -4.3939613318909555e-05 0.0005893644447618309 0.0 -4.4529546810472214e-05 0.0005891565441831703 0.0 -4.475618800427564e-05 0.0005879443354677365 0.0 -4.5377930431205974e-05 0.0005873264882195435 0.0 -4.6074349035322156e-05 0.0005866114537280602 0.0 -4.559921648402587e-05 0.0005856064848532789 0.0 -4.4993039618840815e-05 0.00058452210107938 0.0 -4.454825592308439e-05 0.0005840704179682174 0.0 -4.428967660621356e-05 0.0005837024289901703 0.0 -3.8645043522752324e-05 0.0005987347035023285 0.0 -3.9351769001809276e-05 0.0006003665843223514 0.0 -4.021421495723123e-05 0.0006010315930400057 0.0 -4.12268268054788e-05 0.0006012710295848629 0.0 -4.2235016707872104e-05 0.0006003884559661026 0.0 -4.325003704499825e-05 0.0005994060200010426 0.0 -4.3200947288861664e-05 0.0005976938692784759 0.0 -4.2901454719924754e-05 0.0005955842249132963 0.0 -4.37184011814949e-05 0.0005939052498735256 0.0 -4.368596024139914e-05 0.0005920544483016204 0.0 -4.337188215602518e-05 0.0005897493282622495 0.0 -4.259707193540344e-05 0.0005882867106063303 0.0 -4.1860730664872236e-05 0.0005871567341191504 0.0 -3.66584546453425e-05 0.0006089793954218182 0.0 -3.7199558904373236e-05 0.0006118950755298014 0.0 -3.835965993504315e-05 0.0006133491728973085 0.0 -3.980551964692604e-05 0.0006135585176633152 0.0 -4.0246730623898276e-05 0.0006130028842884757 0.0 -4.106825929241838e-05 0.0006116193719093261 0.0 -4.136550699132778e-05 0.0006092497250983474 0.0 -4.147466165099977e-05 0.0006062763332022019 0.0 -4.1667481750470834e-05 0.0006035206313475517 0.0 -4.145255598505474e-05 0.0006001896628383758 0.0 -4.130246949688182e-05 0.0005970462831526245 0.0 -4.029869460262001e-05 0.0005944925689953859 0.0 -3.956538973082956e-05 0.000592410508694133 0.0 -3.373018506493576e-05 0.0006170416882459386 0.0 -3.514447188823704e-05 0.0006213310246101083 0.0 -3.674133845012881e-05 0.0006238571078780975 0.0 -3.787918108475328e-05 0.0006244510485791031 0.0 -3.8554420213332064e-05 0.0006245562859714912 0.0 -3.8812817593429e-05 0.0006236311844710214 0.0 -3.920979268934032e-05 0.0006215254120056644 0.0 -3.934299090586949e-05 0.0006182106845317998 0.0 -3.981190669333539e-05 0.0006142471765705457 0.0 -3.903895805345645e-05 0.0006099526091804529 0.0 -3.8089406816752696e-05 0.0006053990311607859 0.0 -3.7258800011230535e-05 0.0006019866799409412 0.0 -3.642244883018951e-05 0.0005989765784401978 0.0 -2.9056570156107146e-05 0.0006142624279521035 0.0 -2.5230087935988922e-05 0.0006232612975689267 0.0 -2.2619678932048983e-05 0.0006331374703076355 0.0 -2.0005018137873747e-05 0.000643447346877251 0.0 -1.8318129985263967e-05 0.0006547917697613742 0.0 -1.5377448414561635e-05 0.0006664232698229687 0.0 -1.3652990451083173e-05 0.0006797560537378601 0.0 -1.2086865983833293e-05 0.0006919724446623229 0.0 -1.1302268001978565e-05 0.0007038432110646032 0.0 -1.0951294393787889e-05 0.0007149527326426616 0.0 -3.0793852268179954e-05 0.0006198084121863733 0.0 -2.7030000584929617e-05 0.0006299342986098966 0.0 -2.3548071368617114e-05 0.0006402540168330138 0.0 -2.059595389289167e-05 0.0006514211008676631 0.0 -1.746722044805134e-05 0.0006626366781237323 0.0 -1.5361989378904664e-05 0.0006736961983633347 0.0 -1.2879827244504619e-05 0.00068487594159178 0.0 -1.13577151278442e-05 0.000695603915254673 0.0 -1.074126007029425e-05 0.0007058361361743323 0.0 -1.068117975921883e-0