<?xml version="1.0" ?>
<VTKFile byte_order="LittleEndian" type="UnstructuredGrid" version="0.1">
<UnstructuredGrid>
<Piece NumberOfCells="3478" NumberOfPoints="1836">
<Points>
<DataArray NumberOfComponents="3" format="ascii" type="Float32">0.0 0.0 0.0 0.0 30.0 0.0 90.0 0.0 0.0 90.0 30.0 0.0 45.0 14.7 0.0 45.0 19.7 0.0 45.0 9.7 0.0 44.0245483899222 19.60392640201672 0.0 43.08658283818048 19.31939766255888 0.0 42.22214883490896 18.85734806151738 0.0 41.46446609407355 18.23553390593903 0.0 40.84265193849559 17.47785116511045 0.0 40.38060233744971 16.61341716184027 0.0 40.09607359798762 15.67545161009959 0.0 40.0 14.7000000000206 0.0 40.09607359798068 13.72454838993527 0.0 40.38060233743827 12.78658283818735 0.0 40.84265193848201 11.92214883490987 0.0 41.46446609406021 11.16446609407431 0.0 42.22214883489495 10.54265193849198 0.0 43.08658283817165 10.08060233744477 0.0 44.02454838991945 9.79607359798383 0.0 45.97545161007786 9.796073597983295 0.0 46.91341716181914 10.08060233744095 0.0 47.77785116509095 10.54265193848255 0.0 48.53553390592572 11.16446609406025 0.0 49.15734806150372 11.92214883488851 0.0 49.61939766255018 12.78658283815946 0.0 49.90392640201246 13.72454838990077 0.0 50.0 14.69999999997977 0.0 49.90392640201924 15.67545161006509 0.0 49.6193976625616 16.61341716181298 0.0 49.15734806151947 17.47785116508791 0.0 48.53553390594058 18.23553390592489 0.0 47.77785116510518 18.85734806150794 0.0 46.91341716182851 19.31939766255517 0.0 45.97545161008048 19.60392640201618 0.0 0.0 1.499999999999333 0.0 0.0 2.999999999999543 0.0 0.0 4.499999999999284 0.0 0.0 5.999999999997914 0.0 0.0 7.499999999996543 0.0 0.0 8.999999999992466 0.0 0.0 10.49999999998665 0.0 0.0 11.99999999998084 0.0 0.0 13.49999999997503 0.0 0.0 14.99999999996956 0.0 0.0 16.49999999997229 0.0 0.0 17.99999999997536 0.0 0.0 19.49999999997843 0.0 0.0 20.9999999999815 0.0 0.0 22.49999999998457 0.0 0.0 23.99999999998764 0.0 0.0 25.49999999999073 0.0 0.0 26.99999999999382 0.0 0.0 28.49999999999692 0.0 90.0 1.499999999999333 0.0 90.0 2.999999999999543 0.0 90.0 4.499999999999284 0.0 90.0 5.999999999997914 0.0 90.0 7.499999999996543 0.0 90.0 8.999999999992466 0.0 90.0 10.49999999998665 0.0 90.0 11.99999999998084 0.0 90.0 13.49999999997503 0.0 90.0 14.99999999996956 0.0 90.0 16.49999999997229 0.0 90.0 17.99999999997536 0.0 90.0 19.49999999997843 0.0 90.0 20.9999999999815 0.0 90.0 22.49999999998457 0.0 90.0 23.99999999998764 0.0 90.0 25.49999999999073 0.0 90.0 26.99999999999382 0.0 90.0 28.49999999999692 0.0 1.499999999999597 30.0 0.0 2.999999999999036 30.0 0.0 4.499999999998088 30.0 0.0 5.999999999997163 30.0 0.0 7.499999999997185 30.0 0.0 8.999999999997288 30.0 0.0 10.49999999999739 30.0 0.0 11.99999999999602 30.0 0.0 13.49999999999316 30.0 0.0 14.9999999999903 30.0 0.0 16.49999999998744 30.0 0.0 17.99999999998458 30.0 0.0 19.49999999998172 30.0 0.0 20.99999999997887 30.0 0.0 22.49999999997601 30.0 0.0 23.99999999997315 30.0 0.0 25.4999999999703 30.0 0.0 26.99999999996745 30.0 0.0 28.49999999996459 30.0 0.0 29.99999999996174 30.0 0.0 31.49999999995888 30.0 0.0 32.99999999995603 30.0 0.0 34.49999999995318 30.0 0.0 35.99999999995033 30.0 0.0 37.49999999994748 30.0 0.0 38.99999999994462 30.0 0.0 40.49999999994177 30.0 0.0 41.99999999993892 30.0 0.0 43.49999999993607 30.0 0.0 44.99999999993459 30.0 0.0 46.49999999994219 30.0 0.0 47.99999999995118 30.0 0.0 49.49999999996015 30.0 0.0 50.99999999996914 30.0 0.0 52.49999999997812 30.0 0.0 53.99999999998711 30.0 0.0 55.49999999999608 30.0 0.0 57.00000000000507 30.0 0.0 58.50000000001404 30.0 0.0 60.00000000002303 30.0 0.0 61.500000000032 30.0 0.0 63.00000000004099 30.0 0.0 64.50000000004795 30.0 0.0 66.00000000004582 30.0 0.0 67.50000000004296 30.0 0.0 69.00000000004009 30.0 0.0 70.50000000003723 30.0 0.0 72.00000000003436 30.0 0.0 73.5000000000315 30.0 0.0 75.00000000002863 30.0 0.0 76.50000000002578 30.0 0.0 78.00000000002291 30.0 0.0 79.50000000002005 30.0 0.0 81.0000000000172 30.0 0.0 82.50000000001431 30.0 0.0 84.00000000001147 30.0 0.0 85.50000000000858 30.0 0.0 87.00000000000573 30.0 0.0 88.50000000000286 30.0 0.0 1.499999999999597 0.0 0.0 2.999999999999036 0.0 0.0 4.499999999998088 0.0 0.0 5.999999999997163 0.0 0.0 7.499999999997185 0.0 0.0 8.999999999997288 0.0 0.0 10.49999999999739 0.0 0.0 11.99999999999602 0.0 0.0 13.49999999999316 0.0 0.0 14.9999999999903 0.0 0.0 16.49999999998744 0.0 0.0 17.99999999998458 0.0 0.0 19.49999999998172 0.0 0.0 20.99999999997887 0.0 0.0 22.49999999997601 0.0 0.0 23.99999999997315 0.0 0.0 25.4999999999703 0.0 0.0 26.99999999996745 0.0 0.0 28.49999999996459 0.0 0.0 29.99999999996174 0.0 0.0 31.49999999995888 0.0 0.0 32.99999999995603 0.0 0.0 34.49999999995318 0.0 0.0 35.99999999995033 0.0 0.0 37.49999999994748 0.0 0.0 38.99999999994462 0.0 0.0 40.49999999994177 0.0 0.0 41.99999999993892 0.0 0.0 43.49999999993607 0.0 0.0 44.99999999993459 0.0 0.0 46.49999999994219 0.0 0.0 47.99999999995118 0.0 0.0 49.49999999996015 0.0 0.0 50.99999999996914 0.0 0.0 52.49999999997812 0.0 0.0 53.99999999998711 0.0 0.0 55.49999999999608 0.0 0.0 57.00000000000507 0.0 0.0 58.50000000001404 0.0 0.0 60.00000000002303 0.0 0.0 61.500000000032 0.0 0.0 63.00000000004099 0.0 0.0 64.50000000004795 0.0 0.0 66.00000000004582 0.0 0.0 67.50000000004296 0.0 0.0 69.00000000004009 0.0 0.0 70.50000000003723 0.0 0.0 72.00000000003436 0.0 0.0 73.5000000000315 0.0 0.0 75.00000000002863 0.0 0.0 76.50000000002578 0.0 0.0 78.00000000002291 0.0 0.0 79.50000000002005 0.0 0.0 81.0000000000172 0.0 0.0 82.50000000001431 0.0 0.0 84.00000000001147 0.0 0.0 85.50000000000858 0.0 0.0 87.00000000000573 0.0 0.0 88.50000000000286 0.0 0.0 63.37364706550937 16.50964628420433 0.0 26.62635293463404 16.50964628433121 0.0 13.41978650690528 13.45950154969383 0.0 76.58021349318176 13.45950154962137 0.0 33.45476071497805 8.290175608698323 0.0 56.54523928495111 8.290175608661723 0.0 56.52897059443286 20.86236316873536 0.0 33.47102940567571 20.86236316876138 0.0 71.2830521058756 21.04460405596809 0.0 18.71694789423233 21.04460405599743 0.0 21.41980901986561 9.070463267320616 0.0 68.58019098027053 9.07046326726413 0.0 80.99914552692991 20.97721309723637 0.0 9.000854473061795 20.97721309727302 0.0 7.870305877421703 8.018059563575596 0.0 82.12969412262107 8.018059563525435 0.0 33.7165245411982 14.65399207417489 0.0 56.28347545881759 14.65399207414136 0.0 39.97305498366637 24.34223222603792 0.0 50.02694501636432 24.34223222603521 0.0 38.06318796926433 6.581870986627434 0.0 51.65683578806563 6.660577520338367 0.0 62.64972062822329 23.28495574336215 0.0 27.35027937196879 23.28495574342431 0.0 14.97502445613706 6.824785268959483 0.0 75.02497554396214 6.824785268919009 0.0 6.787494920844402 14.64311087002373 0.0 83.2125050791834 14.64311087005626 0.0 62.74377049329286 6.199343823534628 0.0 27.25622950671565 6.19934382349436 0.0 45.000000000016 24.81766533538266 0.0 43.95657580818752 4.66610370877416 0.0 20.65769446566512 15.12449163383865 0.0 69.34230553450763 15.12449163379761 0.0 37.96200801440695 20.41720228097835 0.0 52.03799198563937 20.41720228095547 0.0 60.84525610777352 11.56302347148087 0.0 29.15474389221305 11.56302347157453 0.0 13.9479594477568 24.07830472189175 0.0 76.05204055230455 24.07830472189373 0.0 37.10725181280449 10.48234091456723 0.0 52.87039497378214 10.64738567442688 0.0 76.13945330379045 19.16176902849947 0.0 13.86054669631562 19.16176902853507 0.0 47.5363758303687 6.338689435416557 0.0 34.86428980814253 25.34552342098224 0.0 55.13571019192649 25.34552342097093 0.0 22.30941555412428 24.72828550626092 0.0 67.69058444605145 24.72828550626487 0.0 84.713423002924 24.99937419725806 0.0 5.286576997074654 24.99937419725982 0.0 53.00114321705956 17.18011225714096 0.0 36.99885678297024 17.18011225718971 0.0 23.5598838532369 20.42784805271946 0.0 66.44011614689009 20.42784805259263 0.0 19.30012895581989 4.590769543361563 0.0 70.69987104427214 4.590769543316364 0.0 34.65194187852933 4.323942427443631 0.0 55.3509190897658 4.276953815657579 0.0 24.56326495034983 12.51090819943921 0.0 65.43673504967131 12.51090819926273 0.0 4.675281458987522 18.75593683549119 0.0 85.32471854101604 18.75593683552496 0.0 59.27549643767956 17.55657731658075 0.0 30.72450356243039 17.55657731666243 0.0 4.48422503831524 4.681086215913009 0.0 85.51577496171463 4.681086215890073 0.0 17.49653004164637 11.94727187727593 0.0 72.50346995845473 11.94727187724224 0.0 10.98527091569449 4.578615553731414 0.0 79.0147290843752 4.578615553705176 0.0 58.91405463068145 25.62404760730938 0.0 31.08594536941772 25.6240476073746 0.0 85.5241378133564 10.79876961335222 0.0 4.475862186642179 10.79876961333991 0.0 42.66656627406208 22.55964308489288 0.0 47.33343372595118 22.55964308489816 0.0 9.583286029275847 25.4002693669458 0.0 80.41671397074799 25.40026936696242 0.0 53.06845121340182 13.81856388174299 0.0 36.93154878659712 13.81856388180116 0.0 17.8174374277252 25.57763591150952 0.0 72.18256257238082 25.5776359115521 0.0 66.48712173895905 4.220888897947975 0.0 23.51287826110802 4.220888897905488 0.0 59.31833062037198 4.22591876993067 0.0 30.68166937960341 4.225918769883755 0.0 11.77463693523386 9.605550025953741 0.0 78.22536306483727 9.60555002590434 0.0 41.61323298424063 7.118443406710728 0.0 40.49821449791196 3.657232821442271 0.0 10.5266603073137 16.32186666614573 0.0 79.47333969271385 16.32186666603704 0.0 16.67405390020416 15.97604740026929 0.0 73.32594609994788 15.97604740025251 0.0 49.78436784633756 3.517636631289772 0.0 49.88839936442268 8.765969189103764 0.0 60.0639438556624 21.0617009560476 0.0 29.93605614447742 21.06170095609978 0.0 55.93957776705275 11.46129603095351 0.0 34.06042223290302 11.46129603098422 0.0 42.080133866937 26.6941411693382 0.0 47.61442067123723 26.51556330917287 0.0 39.44356817596738 9.167540042382463 0.0 29.86186672815856 8.62859477986549 0.0 60.13813327177503 8.62859477979463 0.0 81.60488436417148 11.7395599460253 0.0 8.395115635915154 11.73955994604578 0.0 56.13971841765213 17.80631872018535 0.0 33.86028158239547 17.80631872019029 0.0 46.635920
[...]
<PointData>
<DataArray Name="displ" NumberOfComponents="3" format="ascii" type="Float32">-0.649685378772514 -0.044470709083607445 0.0 -0.6575581792171562 -0.06579614800271735 0.0 -0.252650708058969 -0.00884711745188225 0.0 -0.2629053692706433 -0.03028153431321165 0.0 -0.6114954057729475 -0.04602542828592288 0.0 -0.45463030527532017 -0.06828332505728404 0.0 -0.4492892579196614 -0.0018605540048781844 0.0 -0.46744422204784525 -0.06821643699504416 0.0 -0.48312080968147353 -0.06542778368382232 0.0 -0.49948434625369137 -0.060967780927474485 0.0 -0.5116718065944958 -0.05744208023964394 0.0 -0.525163409029138 -0.052995445066980444 0.0 -0.5349627892493688 -0.049696049146791835 0.0 -0.5395909887455645 -0.044274021019267154 0.0 -0.5410616380389507 -0.040343748046698734 0.0 -0.5384597344239039 -0.036383187930700306 0.0 -0.5336873280565994 -0.030913965504465995 0.0 -0.5245644710997127 -0.02578927773224928 0.0 -0.5149809600039439 -0.021752985751907344 0.0 -0.4992206696030636 -0.01659971768050153 0.0 -0.4829251623588911 -0.010151669897547547 0.0 -0.4663125292121289 -0.0037561831754584257 0.0 -0.4329312636992781 -0.008111000044822278 0.0 -0.41509426155477175 -0.009598791869506887 0.0 -0.39955516072484604 -0.01211574021309628 0.0 -0.386315656092232 -0.01635168283427048 0.0 -0.37394539303708835 -0.02220941369726896 0.0 -0.36720755797098636 -0.028750741155387064 0.0 -0.3634387482663581 -0.032645223837821646 0.0 -0.36215776592299 -0.03615910587260597 0.0 -0.36435133883239645 -0.040326457032152714 0.0 -0.3689011655611696 -0.04581704994735147 0.0 -0.3791140764658492 -0.050062824858198234 0.0 -0.39236488004914694 -0.05468516230968696 0.0 -0.4054359167256022 -0.06291382990600729 0.0 -0.42463211466344597 -0.06553044256088864 0.0 -0.4398470503277518 -0.06728965553208983 0.0 -0.6506007868937592 -0.04276668857213712 0.0 -0.6512019457162525 -0.04292341221855795 0.0 -0.6519172720651836 -0.044967365756974575 0.0 -0.650842172606946 -0.04520840501164656 0.0 -0.6508264446285419 -0.04522287842417571 0.0 -0.6530469979195413 -0.04669044031399929 0.0 -0.6526375938217589 -0.048203464749083304 0.0 -0.6534101183588487 -0.04795032279608105 0.0 -0.6527802029211482 -0.05081185329383666 0.0 -0.6527841904024907 -0.05156013306637941 0.0 -0.6551671941274649 -0.053197829107918156 0.0 -0.6555155060898599 -0.055005929493585445 0.0 -0.6546651862684738 -0.05578274042146031 0.0 -0.6559761617270216 -0.05768273693192048 0.0 -0.6569509821614734 -0.058434916162257225 0.0 -0.6552812930164933 -0.061985778172033455 0.0 -0.6562445671203667 -0.06247559692194327 0.0 -0.6571622108509465 -0.06384209806585991 0.0 -0.6578298430721062 -0.06532550133486109 0.0 -0.25378498085968254 -0.009903343668959954 0.0 -0.25337165791142535 -0.010450292829386486 0.0 -0.2556201037097427 -0.01244066992472043 0.0 -0.25795729183114824 -0.013303318068703019 0.0 -0.25602783780724614 -0.01529497895531456 0.0 -0.2560318215332289 -0.01644863715109932 0.0 -0.25666076125730614 -0.016541861216260462 0.0 -0.2564881564819833 -0.018235903241010657 0.0 -0.25708087241844524 -0.019293490425150533 0.0 -0.2583582416672153 -0.020782880159485387 0.0 -0.25625360504150424 -0.02159496112935128 0.0 -0.25827851642867444 -0.023754056496637883 0.0 -0.2597535352595616 -0.02384682649930751 0.0 -0.25908368323520825 -0.023926979965774073 0.0 -0.2611507952678463 -0.025859033910660176 0.0 -0.26273654710094635 -0.027943733014891045 0.0 -0.2626937001083147 -0.028264947012160875 0.0 -0.263807415300208 -0.028837071887278947 0.0 -0.2640811129265376 -0.028857302223817667 0.0 -0.6541433606108187 -0.06535184004311417 0.0 -0.6465325132099721 -0.06383854909473961 0.0 -0.6395638036890166 -0.0628598946722247 0.0 -0.6330679158213869 -0.062169047647562176 0.0 -0.6253743853625536 -0.06012120866201026 0.0 -0.6192577576501666 -0.058929189736384474 0.0 -0.6133446642478919 -0.05915854539559687 0.0 -0.607251958713598 -0.05877300611547847 0.0 -0.6003078618476878 -0.05821820334951734 0.0 -0.5938788581985596 -0.05671623419188914 0.0 -0.5877138114267538 -0.05549821442975866 0.0 -0.5821238430623198 -0.054932747448065214 0.0 -0.5748959806456007 -0.054800800364307914 0.0 -0.5694347977742203 -0.05455384471732979 0.0 -0.5631612698468587 -0.05482993343375852 0.0 -0.5568598192943687 -0.05463780136790882 0.0 -0.5503643391117656 -0.05439701649247022 0.0 -0.5435417730010266 -0.05504666861244837 0.0 -0.5368091585217359 -0.05497738002639077 0.0 -0.5281249598779482 -0.05385536247053976 0.0 -0.5212985184702286 -0.05396550045086712 0.0 -0.5142508374088216 -0.05543401857134776 0.0 -0.5067277781432096 -0.05659815410788523 0.0 -0.5003651944286449 -0.055577039387017586 0.0 -0.49314708925825423 -0.05719613088269616 0.0 -0.4851850297639719 -0.06036761302864602 0.0 -0.4786504075489739 -0.06346178984231621 0.0 -0.47209931967467417 -0.06752056762686667 0.0 -0.4667883775746783 -0.07106655282529302 0.0 -0.46109598990819406 -0.07168034725451222 0.0 -0.4541365733918729 -0.07093330124512608 0.0 -0.4492960997805052 -0.06779404992930566 0.0 -0.4437887506287331 -0.06434633775512884 0.0 -0.4367149291920223 -0.059088866571798467 0.0 -0.4286730087663758 -0.055081428981933474 0.0 -0.42015149181938977 -0.05155347372157421 0.0 -0.4102863156027373 -0.05076294110003949 0.0 -0.40365372253220266 -0.0452901436819707 0.0 -0.3965788104733425 -0.043656463291084316 0.0 -0.38850758464204505 -0.0410818561744089 0.0 -0.38202065009394265 -0.03752132486072137 0.0 -0.37531133758820445 -0.038459831043999054 0.0 -0.3700967382403765 -0.03868106112200915 0.0 -0.3635820802293772 -0.03731762066114944 0.0 -0.3566105458091679 -0.039164724505188916 0.0 -0.35183140096336946 -0.036580768396701734 0.0 -0.3428796272010751 -0.036350454787476144 0.0 -0.3385512230840439 -0.037707391543435546 0.0 -0.33097349406198634 -0.03412041125127217 0.0 -0.3234752648310815 -0.0367444888686524 0.0 -0.31727941305305385 -0.03469578946310189 0.0 -0.30995362058299086 -0.0340991088773747 0.0 -0.30408445116177096 -0.035053269030528834 0.0 -0.29604708827621556 -0.03228071002295183 0.0 -0.2913207612800829 -0.031372539434602706 0.0 -0.2845313980535022 -0.03156626330514472 0.0 -0.28004106673577756 -0.03340952556403337 0.0 -0.27480407992583583 -0.03120414039098801 0.0 -0.2692216068751764 -0.029981789036867212 0.0 -0.6456813872584826 -0.043796609688166475 0.0 -0.6399765835670227 -0.043640331830462994 0.0 -0.6315013506443774 -0.04219154337676129 0.0 -0.6253854333594334 -0.04354328148202254 0.0 -0.621281869840628 -0.04303263038852491 0.0 -0.6151494837961972 -0.044856990313969114 0.0 -0.6090507146763477 -0.04407041099948805 0.0 -0.6024232223608692 -0.04308269059281226 0.0 -0.59559342809061 -0.04411374372565875 0.0 -0.5893474117718978 -0.04371850971489599 0.0 -0.5820299418623671 -0.0407924644391682 0.0 -0.5750590536038007 -0.04128217988452095 0.0 -0.5679251190791013 -0.04071831321914102 0.0 -0.5615888231406333 -0.0400495853251298 0.0 -0.5537499294104553 -0.03861142827612514 0.0 -0.5472545846414377 -0.03930383838789215 0.0 -0.5397622606743058 -0.037174311513985904 0.0 -0.5319107235922803 -0.036690178100371715 0.0 -0.5259579382007425 -0.03701035458745274 0.0 -0.5203154125814972 -0.03481136585212706 0.0 -0.5106070751920678 -0.03537735314658322 0.0 -0.5039133900059539 -0.032941213980742505 0.0 -0.49581507295991323 -0.031216177041694455 0.0 -0.4878375825493417 -0.027948947836918557 0.0 -0.47957462592972716 -0.02353893568521568 0.0 -0.4695452575093158 -0.02025061793996691 0.0 -0.46318829404284145 -0.014012142437279785 0.0 -0.4567209325175963 -0.008653245423553434 0.0 -0.45043613240876096 -0.005684521682568555 0.0 -0.44440042685514536 -0.0039533132113217795 0.0 -0.4378780653624562 -0.003586850550098849 0.0 -0.43260653764328577 -0.00660578607008246 0.0 -0.4267476905566022 -0.00875487506917214 0.0 -0.4198380822189127 -0.011898801397795842 0.0 -0.41191197150179737 -0.015043583807246744 0.0 -0.4036061768977812 -0.018077594972631453 0.0 -0.39585245067324043 -0.019010788116642786 0.0 -0.38841495833405176 -0.019212672475905634 0.0 -0.38052206924365645 -0.02125479527696328 0.0 -0.37440849381656094 -0.021980814248846958 0.0 -0.36514926744130594 -0.021639198105268667 0.0 -0.3574283519190553 -0.020038147679175562 0.0 -0.35039932556543224 -0.02053203920087403 0.0 -0.34453244933167537 -0.020142333063458272 0.0 -0.3369014844812177 -0.018920531843978378 0.0 -0.32879076844883054 -0.018845801089541973 0.0 -0.32311243641657855 -0.01727186423810396 0.0 -0.3168995860941564 -0.017979849570611148 0.0 -0.30992241909779294 -0.015069169736800931 0.0 -0.30513804511856535 -0.014865443213191944 0.0 -0.29970702448725656 -0.015089370869937623 0.0 -0.2927511501895024 -0.014031669019827596 0.0 -0.287788166166878 -0.012126083101923589 0.0 -0.28280878037321844 -0.011981083431820262 0.0 -0.27792218734597957 -0.011944053348705104 0.0 -0.2718450625839543 -0.010213433692410984 0.0 -0.2668861397685106 -0.010178844506166648 0.0 -0.26211115631355913 -0.00965228420663794 0.0 -0.25641478061821776 -0.00860167215302459 0.0 -0.34837807768787743 -0.03305267459012099 0.0 -0.5590229509098331 -0.04585716571538807 0.0 -0.6046741314327816 -0.04848722544696105 0.0 -0.3021005757376196 -0.02596728062787976 0.0 -0.5216589872224205 -0.04163143510081323 0.0 -0.37737499667873664 -0.02896177583872443 0.0 -0.383573845975271 -0.03928156411430755 0.0 -0.5272632798059056 -0.04550004640633029 0.0 -0.32904590022832847 -0.03176265917303309 0.0 -0.5814101084040245 -0.0491007649001056 0.0 -0.5678639144369628 -0.04378060644952419 0.0 -0.33107635749463993 -0.02579139003225746 0.0 -0.2911109583760949 -0.028790822464494537 0.0 -0.6226057097196792 -0.05520995004877507 0.0 -0.6240787707504621 -0.04614861971021561 0.0 -0.28136444910090436 -0.01942797141974072 0.0 -0.5455582867790492 -0.04229430089622121 0.0 -0.35902816593823633 -0.03339964266667644 0.0 -0.48407725033041027 -0.060060699779159815 0.0 -0.43021060054099697 -0.05696162856984722 0.0 -0.4900061789572955 -0.029279263661403133 0.0 -0.40630505781321935 -0.02176019000039141 0.0 -0.36831414413100855 -0.03606184671773172 0.0 -0.5462664479027035 -0.0466423411365553 0.0 -0.593530404513466 -0.04457838976337401 0.0 -0.30681227727723986 -0.020882842849225453 0.0 -0.6309992496361673 -0.051966986185031254 0.0 -0.2796730346430444 -0.024160919697081337 0.0 -0.35597308160338836 -0.02559391224612411 0.0 -0.5410179702793207 -0.04045122551910236 0.0 -0.457095055190343 -0.06911852154038091 0.0 -0.45236057216618825 -0.006750506952370471 0.0 -0.5776880300040732 -0.04631177464049869 0.0 -0.32752102095826224 -0.030709455664199525 0.0 -0.5088094372726029 -0.048172679230497464 0.0 -0.3998496875007967 -0.04343023809584922 0.0 -0.35333680973005177 -0.03032524057888776 0.0 -0.5496127702660745 -0.042438772105753024 0.0 -0.5991491084060417 -0.05367321947014363 0.0 -0.31288737993281857 -0.03184848578565905 0.0 -0.5214014434971571 -0.03885790243474353 0.0 -0.37619342495134506 -0.030984564735412147 0.0 -0.3070325204445217 -0.02967566391323076 0.0 -0.6017332712664158 -0.0510992486068018 0.0 -0.43145803097301405 -0.007662149327691127 0.0 -0.5094828730823239 -0.05156793221121075 0.0 -0.40538682077894544 -0.046042009273164756 0.0 -0.5651645457810565 -0.05009639280409883 0.0 -0.351729458761595 -0.03424741012417772 0.0 -0.28048575370017126 -0.029091047990059186 0.0 -0.6363487273753536 -0.05995917910788121 0.0 -0.36982059785554894 -0.037192137413446694 0.0 -0.5359334736139271 -0.04238588271125453 0.0 -0.5641991327656506 -0.04768992607372444 0.0 -0.34762464775505025 -0.033198641665827665 0.0 -0.5708636389073685 -0.043337987527386615 0.0 -0.32428170291222325 -0.020622913368584867 0.0 -0.5013229887955231 -0.03487114722362794 0.0 -0.39377765961107297 -0.02296746501667622 0.0 -0.5635365483329192 -0.04527313692830061 0.0 -0.33931368216109736 -0.029265795143441502 0.0 -0.6399377490098035 -0.05593016739326962 0.0 -0.2752418192402772 -0.02441206987578701 0.0 -0.36053649440123614 -0.033748442620125975 0.0 -0.5469339321163982 -0.04414618374999056 0.0 -0.6345435881631508 -0.04450023783620574 0.0 -0.2685999090353381 -0.01419380312503299 0.0 -0.5872622969220637 -0.0463340795631284 0.0 -0.31735270808595134 -0.026350879522983962 0.0 -0.6082963096131477 -0.04383842882676497 0.0 -0.2915970502593426 -0.017157519658641755 0.0 -0.38854992221516443 -0.04034457003675316 0.0 -0.5257520575213124 -0.049989848944367324 0.0 -0.270000324944308 -0.019541643954198717 0.0 -0.6377216861043324 -0.04718786831652493 0.0 -0.4707926928514521 -0.06777706976130421 0.0 -0.44137969085378725 -0.06614821794343177 0.0 -0.6175338832236833 -0.05608183624413751 0.0 -0.29648715945077525 -0.031120944161502427 0.0 -0.36178043840173085 -0.034527107817231444 0.0 -0.5419176268125021 -0.041158885445804975 0.0 -0.5818592199638496 -0.05335946246448824 0.0 -0.3331543716595071 -0.033731961487368 0.0 -0.3417109194789472 -0.02281787227125478 0.0 -0.551671436148878 -0.04173769780749828 0.0 -0.37367176197648994 -0.023883089553314918 0.0 -0.5213971504518041 -0.0382326905664669 0.0 -0.6102347507533764 -0.046987260898193405 0.0 -0.29549763503108484 -0.022652443516663498 0.0 -0.470321619151641 -0.0157245627847412 0.0 -0.46949299727728744 -0.01676502155478754 0.0 -0.6176116531581124 -0.05035634758684336 0.0 -0.29393819137926774 -0.02555411119553053 0.0 -0.5912562780406845 -0.047453460851584306 0.0 -0.3146761272883015 -0.030080149721928448 0.0 -0.4212125099037525 -0.012313769004022895 0.0 -0.4057653425827578 -0.020503554612493174 0.0 -0.37255829950338243 -0.035906740261623306 0.0 -0.541117534376652 -0.04511365432975717 0.0 -0.3642626398261814 -0.031126067609943298 0.0 -0.5364219470540572 -0.04234998723043119 0.0 -0.47282796218460277 -0.06674769438225105 0.0 -0.44568391656851325 -0.06613250039453844 0.0 -0.4984290257532238 -0.029592260270162814 0.0 -0.5371139746347815 -0.04286383723461088 0.0 -0.3614220988346478 -0.029004037418104894 0.0 -0.2840598695958381 -0.021986304867291296 0.0 -0.6246526354512241 -0.04733664801323612 0.0 -0.3687811023955553 -0.03482613229143761 0.0 -0.5392194459440794 -0.04318465651320786 0.0 -0.43714766712199893 -0.0056485253004078155 0.0 -0.36791466323562244 -0.036210021262522166 0.0 -0.5489333685229257 -0.05106431294879541 0.0 -0.4192130309619708 -0.05519119363068664 0.0 -0.48986250156565175 -0.057071890552244604 0.0 -0.5558444428173546 -0.044715555723298446 0.0 -0.34362617347632046 -0.02738733447047579 0.0 -0.5858266029796753 -0.043811559205155344 0.0 -0.3112590840685403 -0.01808148660647069 0.0 -0.6436084343425662 -0.052063722872315706 0.0 -0.26844781618925967 -0.021740787889300138 0.0 -0.4922971184980056 -0.0579870055841275 0.0 -0.42645954981733364 -0.053985288446190334 0.0 -0.5538723751543192 -0.04608077225483171 0.0 -0.3568934774068005 -0.034847657199370004 0.0 -0.45324129607840447 -0.007082171201615656 0.0 -0.5805402877922243 -0.04490451055153755 0.0 -0.3188176528854596 -0.02306947855903686 0.0 -0.6219753848657119 -0.043064330373809294 0.0 -0.2797768520760518 -0.014620736686107394 0.0 -0.5500521488283359 -0.04417075517032762 0.0 -0.35601310492817445 -0.033353332570906245 0.0 -0.6450874899270682 -0.05853786318500397 0.0 -0.2727995242637039 -0.027677567411996732 0.0 -0.5085234128785339 -0.037183477561132626 0.0 -0.3893649890120087 -0.028006799284990735 0.0 -0.500587847720016 -0.05052431709118982 0.0 -0.41125958649982336 -0.046559491570931186 0.0 -0.2662536024592056 -0.015771874837189746 0.0 -0.6400727854862688 -0.046867415849132434 0.0 -0.3601016107377919 -0.023213773279064823 0.0 -0.5330889462899494 -0.03920924407708729 0.0 -0.5672020781584765 -0.045974320956186025 0.0 -0.34020803554290363 -0.032125677473409865 0.0 -0.48460947514539665 -0.026753147916514144 0.0 -0.4564367869944839 -0.0700318054217907 0.0 -0.32985320033643445 -0.03251525704239081 0.0 -0.5775353783149035 -0.04771741773381087 0.0 -0.285022594678785 -0.02538494233095568 0.0 -0.6275933948299388 -0.053855033528943545 0.0 -0.5964778906746958 -0.04599988702195256 0.0 -0.306369381618039 -0.02380685401701553 0.0 -0.3147026570482438 -0.03213640928856706 0.0 -0.5939216982962013 -0.05112196416865127 0.0 -0.608059962939512 -0.05354709340551343 0.0 -0.30274319475454264 -0.029854257587628025 0.0 -0.3300597280018806 -0.029475718027896183 0.0 -0.5719579550906245 -0.045694417497839444 0.0 -0.40689998487735923 -0.0178461803504694 0.0 -0.6046397858691274 -0.055581395474297746 0.0 -0.30935120156971824 -0.03261876031075943 0.0 -0.5204040741401075 -0.046975014081188794 0.0 -0.39258048072792395 -0.040657324723416474 0.0 -0.5246836130166721 -0.044842942037547184 0.0 -0.3827333740290287 -0.03882969741874634 0.0 -0.5220002374702981 -0.04642786156335239 0.0 -0.3838025872852922 -0.042566828508619946 0.0 -0.27252669182938394 -0.029321595792717817 0.0 -0.6470774503225645 -0.0634755854556936 0.0 -0.5386441182339539 -0.04136125389882663 0.0 -0.36331649273474853 -0.029492538298352616 0.0 -0.5364110528259096 -0.05082403945844061 0.0 -0.37904863211468787 -0.038491509373195246 0.0 -0.5329320246863641 -0.0387407005647992 0.0 -0.3673462725875302 -0.03254573806874299 0.0 -0.5915444423864161 -0.05535205271139768 0.0 -0.3229602457732603 -0.03323499247712978 0.0 -0.626969219233741 -0.06006765951670192 0.0 -0.28860076043438865 -0.030263718396411267 0.0 -0.346955202873933 -0.030482120128169674 0.0 -0.5581853321288637 -0.04471932177465878 0.0 -0.5719025361626362 -0.05377804311271142 0.0 -0.3464784548363923 -0.034546483237158025 0.0 -0.5153458228236797 -0.05140968989040591 0.0 -0.4019382701317212 -0.04439025335402168 0.0 -0.35628722792676576 -0.03448173671530105 0.0 -0.557695503608684 -0.04877954922571428 0.0 -0.34169197655232275 -0.03381696314894922 0.0 -0.5711799079766622 -0.048544963497367845 0.0 -0.5901745316684005 -0.049781628796524244 0.0 -0.31809201776522605 -0.03160906842686528 0.0 -0.3516492950353266 -0.027717092511067274 0.0 -0.5495775427826414 -0.04357136239203188 0.0 -0.45663581128252984 -0.008321310592530351 0.0 -0.2820418716759593 -0.027867339766237616 0.0 -0.6325840839845608 -0.05655762739927476 0.0 -0.5147543643040644 -0.03896380073812707 0.0 -0.3807897926315876 -0.02525639935689525 0.0 -0.6166315034687477 -0.04941059110838059 0.0 -0.29346360359760465 -0.024319668244024283 0.0 -0.5979027563080734 -0.0435075128962574 0.0 -0.2997098632909796 -0.018435082933592035 0.0 -0.456598597641901 -0.07080595694026527 0.0 -0.36292161769475506 -0.03714198995018864 0.0 -0.5412984723337501 -0.04142781503649862 0.0 -0.5614414515782321 -0.04410775853774635 0.0 -0.33344049266795106 -0.02259696609828535 0.0 -0.3819847858038576 -0.027244186833805674 0.0 -0.2968247595958785 -0.02766365289328535 0.0 -0.6145189361058129 -0.05203923796399581 0.0 -0.3317850679055146 -0.020249094377295773 0.0 -0.5614768979324011 -0.041584514179974746 0.0 -0.26522481131144243 -0.020216106987558168 0.0 -0.6444221353479219 -0.048588348611255536 0.0 -0.42298323380242675 -0.010047661006708038 0.0 -0.3024122131892694 -0.02697600845895406 0.0 -0.6063632144517119 -0.04947743786906287 0.0 -0.6058281555756607 -0.045883498592965914 0.0 -0.29751818525153273 -0.019918047290851032 0.0 -0.385373533493941 -0.022232203479087262 0.0 -0.5060581752827548 -0.03428432664060772 0.0 -0.6412910985859328 -0.04375159781998704 0.0 -0.2624548185567564 -0.012025688268246997 0.0 -0.3967148815915323 -0.04144925238110147 0.0 -0.5139516292641556 -0.04669501573511424 0.0 -0.43882419937678957 -0.006701257633385267 0.0 -0.39379122480846446 -0.02626716058169127 0.0 -0.5458116236697166 -0.0430716636856691 0.0 -0.35720817432292745 -0.0324769556907148 0.0 -0.5604647244036995 -0.05281217822809853 0.0 -0.35650232472260346 -0.03576460419512306 0.0 -0.4195664242833371 -0.014043384042634208 0.0 -0.5428976387892883 -0.04235331274750991 0.0 -0.3609856591277022 -0.03596479567644148 0.0 -0.33471641487991 -0.03055244896984932 0.0 -0.5696643756946593 -0.04657726110006139 0.0 -0.550972995618884 -0.04153150807653384 0.0 -0.3450833345565876 -0.02512668874806429 0.0 -0.6487686768993306 -0.062463151440569235 0.0 -0.27080251195779065 -0.027859130723403135 0.0 -0.3348627846803976 -0.033260676847199445 0.0 -0.5772352223389038 -0.050621212399322046 0.0 -0.3777766882130391 -0.03770407415806398 0.0 -0.5361290956869642 -0