<?xml version="1.0" ?>
<VTKFile byte_order="LittleEndian" type="UnstructuredGrid" version="0.1">
<UnstructuredGrid>
<Piece NumberOfCells="3478" NumberOfPoints="1836">
<Points>
<DataArray NumberOfComponents="3" format="ascii" type="Float32">0.0 0.0 0.0 0.0 30.0 0.0 90.0 0.0 0.0 90.0 30.0 0.0 45.0 14.7 0.0 45.0 19.7 0.0 45.0 9.7 0.0 44.0245483899222 19.60392640201672 0.0 43.08658283818048 19.31939766255888 0.0 42.22214883490896 18.85734806151738 0.0 41.46446609407355 18.23553390593903 0.0 40.84265193849559 17.47785116511045 0.0 40.38060233744971 16.61341716184027 0.0 40.09607359798762 15.67545161009959 0.0 40.0 14.7000000000206 0.0 40.09607359798068 13.72454838993527 0.0 40.38060233743827 12.78658283818735 0.0 40.84265193848201 11.92214883490987 0.0 41.46446609406021 11.16446609407431 0.0 42.22214883489495 10.54265193849198 0.0 43.08658283817165 10.08060233744477 0.0 44.02454838991945 9.79607359798383 0.0 45.97545161007786 9.796073597983295 0.0 46.91341716181914 10.08060233744095 0.0 47.77785116509095 10.54265193848255 0.0 48.53553390592572 11.16446609406025 0.0 49.15734806150372 11.92214883488851 0.0 49.61939766255018 12.78658283815946 0.0 49.90392640201246 13.72454838990077 0.0 50.0 14.69999999997977 0.0 49.90392640201924 15.67545161006509 0.0 49.6193976625616 16.61341716181298 0.0 49.15734806151947 17.47785116508791 0.0 48.53553390594058 18.23553390592489 0.0 47.77785116510518 18.85734806150794 0.0 46.91341716182851 19.31939766255517 0.0 45.97545161008048 19.60392640201618 0.0 0.0 1.499999999999333 0.0 0.0 2.999999999999543 0.0 0.0 4.499999999999284 0.0 0.0 5.999999999997914 0.0 0.0 7.499999999996543 0.0 0.0 8.999999999992466 0.0 0.0 10.49999999998665 0.0 0.0 11.99999999998084 0.0 0.0 13.49999999997503 0.0 0.0 14.99999999996956 0.0 0.0 16.49999999997229 0.0 0.0 17.99999999997536 0.0 0.0 19.49999999997843 0.0 0.0 20.9999999999815 0.0 0.0 22.49999999998457 0.0 0.0 23.99999999998764 0.0 0.0 25.49999999999073 0.0 0.0 26.99999999999382 0.0 0.0 28.49999999999692 0.0 90.0 1.499999999999333 0.0 90.0 2.999999999999543 0.0 90.0 4.499999999999284 0.0 90.0 5.999999999997914 0.0 90.0 7.499999999996543 0.0 90.0 8.999999999992466 0.0 90.0 10.49999999998665 0.0 90.0 11.99999999998084 0.0 90.0 13.49999999997503 0.0 90.0 14.99999999996956 0.0 90.0 16.49999999997229 0.0 90.0 17.99999999997536 0.0 90.0 19.49999999997843 0.0 90.0 20.9999999999815 0.0 90.0 22.49999999998457 0.0 90.0 23.99999999998764 0.0 90.0 25.49999999999073 0.0 90.0 26.99999999999382 0.0 90.0 28.49999999999692 0.0 1.499999999999597 30.0 0.0 2.999999999999036 30.0 0.0 4.499999999998088 30.0 0.0 5.999999999997163 30.0 0.0 7.499999999997185 30.0 0.0 8.999999999997288 30.0 0.0 10.49999999999739 30.0 0.0 11.99999999999602 30.0 0.0 13.49999999999316 30.0 0.0 14.9999999999903 30.0 0.0 16.49999999998744 30.0 0.0 17.99999999998458 30.0 0.0 19.49999999998172 30.0 0.0 20.99999999997887 30.0 0.0 22.49999999997601 30.0 0.0 23.99999999997315 30.0 0.0 25.4999999999703 30.0 0.0 26.99999999996745 30.0 0.0 28.49999999996459 30.0 0.0 29.99999999996174 30.0 0.0 31.49999999995888 30.0 0.0 32.99999999995603 30.0 0.0 34.49999999995318 30.0 0.0 35.99999999995033 30.0 0.0 37.49999999994748 30.0 0.0 38.99999999994462 30.0 0.0 40.49999999994177 30.0 0.0 41.99999999993892 30.0 0.0 43.49999999993607 30.0 0.0 44.99999999993459 30.0 0.0 46.49999999994219 30.0 0.0 47.99999999995118 30.0 0.0 49.49999999996015 30.0 0.0 50.99999999996914 30.0 0.0 52.49999999997812 30.0 0.0 53.99999999998711 30.0 0.0 55.49999999999608 30.0 0.0 57.00000000000507 30.0 0.0 58.50000000001404 30.0 0.0 60.00000000002303 30.0 0.0 61.500000000032 30.0 0.0 63.00000000004099 30.0 0.0 64.50000000004795 30.0 0.0 66.00000000004582 30.0 0.0 67.50000000004296 30.0 0.0 69.00000000004009 30.0 0.0 70.50000000003723 30.0 0.0 72.00000000003436 30.0 0.0 73.5000000000315 30.0 0.0 75.00000000002863 30.0 0.0 76.50000000002578 30.0 0.0 78.00000000002291 30.0 0.0 79.50000000002005 30.0 0.0 81.0000000000172 30.0 0.0 82.50000000001431 30.0 0.0 84.00000000001147 30.0 0.0 85.50000000000858 30.0 0.0 87.00000000000573 30.0 0.0 88.50000000000286 30.0 0.0 1.499999999999597 0.0 0.0 2.999999999999036 0.0 0.0 4.499999999998088 0.0 0.0 5.999999999997163 0.0 0.0 7.499999999997185 0.0 0.0 8.999999999997288 0.0 0.0 10.49999999999739 0.0 0.0 11.99999999999602 0.0 0.0 13.49999999999316 0.0 0.0 14.9999999999903 0.0 0.0 16.49999999998744 0.0 0.0 17.99999999998458 0.0 0.0 19.49999999998172 0.0 0.0 20.99999999997887 0.0 0.0 22.49999999997601 0.0 0.0 23.99999999997315 0.0 0.0 25.4999999999703 0.0 0.0 26.99999999996745 0.0 0.0 28.49999999996459 0.0 0.0 29.99999999996174 0.0 0.0 31.49999999995888 0.0 0.0 32.99999999995603 0.0 0.0 34.49999999995318 0.0 0.0 35.99999999995033 0.0 0.0 37.49999999994748 0.0 0.0 38.99999999994462 0.0 0.0 40.49999999994177 0.0 0.0 41.99999999993892 0.0 0.0 43.49999999993607 0.0 0.0 44.99999999993459 0.0 0.0 46.49999999994219 0.0 0.0 47.99999999995118 0.0 0.0 49.49999999996015 0.0 0.0 50.99999999996914 0.0 0.0 52.49999999997812 0.0 0.0 53.99999999998711 0.0 0.0 55.49999999999608 0.0 0.0 57.00000000000507 0.0 0.0 58.50000000001404 0.0 0.0 60.00000000002303 0.0 0.0 61.500000000032 0.0 0.0 63.00000000004099 0.0 0.0 64.50000000004795 0.0 0.0 66.00000000004582 0.0 0.0 67.50000000004296 0.0 0.0 69.00000000004009 0.0 0.0 70.50000000003723 0.0 0.0 72.00000000003436 0.0 0.0 73.5000000000315 0.0 0.0 75.00000000002863 0.0 0.0 76.50000000002578 0.0 0.0 78.00000000002291 0.0 0.0 79.50000000002005 0.0 0.0 81.0000000000172 0.0 0.0 82.50000000001431 0.0 0.0 84.00000000001147 0.0 0.0 85.50000000000858 0.0 0.0 87.00000000000573 0.0 0.0 88.50000000000286 0.0 0.0 63.37364706550937 16.50964628420433 0.0 26.62635293463404 16.50964628433121 0.0 13.41978650690528 13.45950154969383 0.0 76.58021349318176 13.45950154962137 0.0 33.45476071497805 8.290175608698323 0.0 56.54523928495111 8.290175608661723 0.0 56.52897059443286 20.86236316873536 0.0 33.47102940567571 20.86236316876138 0.0 71.2830521058756 21.04460405596809 0.0 18.71694789423233 21.04460405599743 0.0 21.41980901986561 9.070463267320616 0.0 68.58019098027053 9.07046326726413 0.0 80.99914552692991 20.97721309723637 0.0 9.000854473061795 20.97721309727302 0.0 7.870305877421703 8.018059563575596 0.0 82.12969412262107 8.018059563525435 0.0 33.7165245411982 14.65399207417489 0.0 56.28347545881759 14.65399207414136 0.0 39.97305498366637 24.34223222603792 0.0 50.02694501636432 24.34223222603521 0.0 38.06318796926433 6.581870986627434 0.0 51.65683578806563 6.660577520338367 0.0 62.64972062822329 23.28495574336215 0.0 27.35027937196879 23.28495574342431 0.0 14.97502445613706 6.824785268959483 0.0 75.02497554396214 6.824785268919009 0.0 6.787494920844402 14.64311087002373 0.0 83.2125050791834 14.64311087005626 0.0 62.74377049329286 6.199343823534628 0.0 27.25622950671565 6.19934382349436 0.0 45.000000000016 24.81766533538266 0.0 43.95657580818752 4.66610370877416 0.0 20.65769446566512 15.12449163383865 0.0 69.34230553450763 15.12449163379761 0.0 37.96200801440695 20.41720228097835 0.0 52.03799198563937 20.41720228095547 0.0 60.84525610777352 11.56302347148087 0.0 29.15474389221305 11.56302347157453 0.0 13.9479594477568 24.07830472189175 0.0 76.05204055230455 24.07830472189373 0.0 37.10725181280449 10.48234091456723 0.0 52.87039497378214 10.64738567442688 0.0 76.13945330379045 19.16176902849947 0.0 13.86054669631562 19.16176902853507 0.0 47.5363758303687 6.338689435416557 0.0 34.86428980814253 25.34552342098224 0.0 55.13571019192649 25.34552342097093 0.0 22.30941555412428 24.72828550626092 0.0 67.69058444605145 24.72828550626487 0.0 84.713423002924 24.99937419725806 0.0 5.286576997074654 24.99937419725982 0.0 53.00114321705956 17.18011225714096 0.0 36.99885678297024 17.18011225718971 0.0 23.5598838532369 20.42784805271946 0.0 66.44011614689009 20.42784805259263 0.0 19.30012895581989 4.590769543361563 0.0 70.69987104427214 4.590769543316364 0.0 34.65194187852933 4.323942427443631 0.0 55.3509190897658 4.276953815657579 0.0 24.56326495034983 12.51090819943921 0.0 65.43673504967131 12.51090819926273 0.0 4.675281458987522 18.75593683549119 0.0 85.32471854101604 18.75593683552496 0.0 59.27549643767956 17.55657731658075 0.0 30.72450356243039 17.55657731666243 0.0 4.48422503831524 4.681086215913009 0.0 85.51577496171463 4.681086215890073 0.0 17.49653004164637 11.94727187727593 0.0 72.50346995845473 11.94727187724224 0.0 10.98527091569449 4.578615553731414 0.0 79.0147290843752 4.578615553705176 0.0 58.91405463068145 25.62404760730938 0.0 31.08594536941772 25.6240476073746 0.0 85.5241378133564 10.79876961335222 0.0 4.475862186642179 10.79876961333991 0.0 42.66656627406208 22.55964308489288 0.0 47.33343372595118 22.55964308489816 0.0 9.583286029275847 25.4002693669458 0.0 80.41671397074799 25.40026936696242 0.0 53.06845121340182 13.81856388174299 0.0 36.93154878659712 13.81856388180116 0.0 17.8174374277252 25.57763591150952 0.0 72.18256257238082 25.5776359115521 0.0 66.48712173895905 4.220888897947975 0.0 23.51287826110802 4.220888897905488 0.0 59.31833062037198 4.22591876993067 0.0 30.68166937960341 4.225918769883755 0.0 11.77463693523386 9.605550025953741 0.0 78.22536306483727 9.60555002590434 0.0 41.61323298424063 7.118443406710728 0.0 40.49821449791196 3.657232821442271 0.0 10.5266603073137 16.32186666614573 0.0 79.47333969271385 16.32186666603704 0.0 16.67405390020416 15.97604740026929 0.0 73.32594609994788 15.97604740025251 0.0 49.78436784633756 3.517636631289772 0.0 49.88839936442268 8.765969189103764 0.0 60.0639438556624 21.0617009560476 0.0 29.93605614447742 21.06170095609978 0.0 55.93957776705275 11.46129603095351 0.0 34.06042223290302 11.46129603098422 0.0 42.080133866937 26.6941411693382 0.0 47.61442067123723 26.51556330917287 0.0 39.44356817596738 9.167540042382463 0.0 29.86186672815856 8.62859477986549 0.0 60.13813327177503 8.62859477979463 0.0 81.60488436417148 11.7395599460253 0.0 8.395115635915154 11.73955994604578 0.0 56.13971841765213 17.80631872018535 0.0 33.86028158239547 17.80631872019029 0.0 46.635920
[...]
<PointData>
<DataArray Name="displ" NumberOfComponents="3" format="ascii" type="Float32">-0.7729594108876406 -0.0452811629150793 0.0 -0.7799956993595066 -0.077499299726005 0.0 -0.30576855399872305 0.0010453620983287054 0.0 -0.3196186828942666 -0.0270203003111419 0.0 -0.7283030873993328 -0.05238984763365084 0.0 -0.5426851100368552 -0.07427616281400787 0.0 -0.5380517548521125 0.0029136372122354924 0.0 -0.5595709363331179 -0.07468754157580372 0.0 -0.5794462432356109 -0.07329639910351209 0.0 -0.5990629704897519 -0.06740043432706164 0.0 -0.6132300562038123 -0.06332503941427961 0.0 -0.6291596015833032 -0.05832600633329482 0.0 -0.6410079579112656 -0.053999026493850334 0.0 -0.647014421906054 -0.04774635896562189 0.0 -0.6491258134578938 -0.044373437308711614 0.0 -0.6457086782882043 -0.04002194329293753 0.0 -0.6407099603810416 -0.033322643479512894 0.0 -0.6304911124647249 -0.027122180118739285 0.0 -0.6171084873887646 -0.02100995065360162 0.0 -0.5995708657035128 -0.015312598088580256 0.0 -0.5803707226302499 -0.008651264779485876 0.0 -0.5605607625100701 -0.0018678925634722599 0.0 -0.5173076376564506 -0.0043377913252410265 0.0 -0.4963466717938593 -0.006421493928896335 0.0 -0.4777792393097376 -0.0094893632437319 0.0 -0.4623660182676392 -0.012820029925985132 0.0 -0.44808934791793725 -0.019517517556935263 0.0 -0.43914702543103185 -0.02695421995793332 0.0 -0.43422546920250027 -0.03080337512633779 0.0 -0.4330468593523106 -0.03509085700475985 0.0 -0.43535372833167973 -0.04116808140587685 0.0 -0.4407844482415575 -0.04827047482976722 0.0 -0.45175444992639596 -0.05362787615680545 0.0 -0.46794144414588257 -0.05888097669482501 0.0 -0.4839822476328467 -0.06762117226435672 0.0 -0.5052550117615059 -0.07157265459656363 0.0 -0.5239651271539214 -0.07414833463736246 0.0 -0.7748983169368993 -0.04550338732613434 0.0 -0.7767705445279859 -0.04629315855793771 0.0 -0.776814751287247 -0.04994362395842803 0.0 -0.7766712791212741 -0.050660587555695885 0.0 -0.7785383035647752 -0.052421408997355805 0.0 -0.7794520384792356 -0.054181894157560716 0.0 -0.7787150632301391 -0.05525197927216872 0.0 -0.7789327821919241 -0.05645571061692174 0.0 -0.7786117676156066 -0.05842698334688317 0.0 -0.7779114172579338 -0.06075617501790765 0.0 -0.7798341250504816 -0.0636495827952485 0.0 -0.7814480469540227 -0.06485536969513009 0.0 -0.7803357771469398 -0.0667898984734668 0.0 -0.7809193096755863 -0.06852474573218326 0.0 -0.7806010657400864 -0.06868577004659333 0.0 -0.7796421135137587 -0.07150395791354572 0.0 -0.7799406540814429 -0.07297394514646326 0.0 -0.7791908987321714 -0.07466991427922941 0.0 -0.7791400247697141 -0.07685313723621609 0.0 -0.30690381855068555 0.0008169074360147336 0.0 -0.30724739234602816 -0.0010874565744297033 0.0 -0.30853734615257183 -0.0026887976203779093 0.0 -0.3107245240264325 -0.004038217908726394 0.0 -0.30998276536948755 -0.0064598048521055836 0.0 -0.30912613086354107 -0.008407253274911998 0.0 -0.3100790173897617 -0.009994535216832483 0.0 -0.3111136867684802 -0.012465856710043898 0.0 -0.31124758442095257 -0.014070491626017855 0.0 -0.31227578424419244 -0.015046165706306057 0.0 -0.31068661320665714 -0.01708599029965421 0.0 -0.31409031397598963 -0.01907367451300003 0.0 -0.31462728779122007 -0.02031010902696341 0.0 -0.31469923627757407 -0.020323088993036854 0.0 -0.3150041828681495 -0.022260644822420617 0.0 -0.31689953989915415 -0.02489547436541774 0.0 -0.3160176274943092 -0.02545036036714052 0.0 -0.3193177151104479 -0.025516294110750393 0.0 -0.3191623344842924 -0.025883359454281767 0.0 -0.7755549722625559 -0.07599243141904359 0.0 -0.767620787690954 -0.07440842856856374 0.0 -0.7593883335808894 -0.0733923166768449 0.0 -0.7519951336667299 -0.07198028243203168 0.0 -0.743435102041429 -0.07058645188106091 0.0 -0.7364648622014547 -0.0690371364294794 0.0 -0.730055475748603 -0.0674436198892589 0.0 -0.723642723757383 -0.06644225443885654 0.0 -0.7166272407666027 -0.06563595014315825 0.0 -0.7094462843592753 -0.06341470696492586 0.0 -0.702553479274151 -0.06235875635285057 0.0 -0.6956230226263338 -0.06157371859125906 0.0 -0.6873579199944192 -0.060564163472761265 0.0 -0.6800469948097703 -0.06150380782128155 0.0 -0.6730484606841973 -0.060480061968563675 0.0 -0.6655268276767261 -0.05985429422490059 0.0 -0.6571979973927633 -0.05995957874556553 0.0 -0.6491235098850806 -0.060377976179523445 0.0 -0.6411406421311097 -0.060705282289382954 0.0 -0.6305483258468542 -0.059768619790618156 0.0 -0.6229017645872852 -0.06029690980520117 0.0 -0.61414596242163 -0.060767981872233305 0.0 -0.6035616374928516 -0.06334376491074814 0.0 -0.5948447153084825 -0.06329912333307752 0.0 -0.5864202206433219 -0.0650476306790922 0.0 -0.5778086294397501 -0.06844069414814748 0.0 -0.5701739077200891 -0.07260638649909244 0.0 -0.562774395830666 -0.07661301504301958 0.0 -0.555493877122925 -0.07914941277992896 0.0 -0.5490367669031675 -0.07956479107041498 0.0 -0.5409327416027297 -0.07776692777804026 0.0 -0.5352478308294197 -0.07415696910149658 0.0 -0.52817420980632 -0.06904581922512007 0.0 -0.5215641458068117 -0.062366507127727754 0.0 -0.511938386828369 -0.05684249305905734 0.0 -0.5028793812825805 -0.0524735799486044 0.0 -0.49311004959859933 -0.05139821115269071 0.0 -0.4853075175676266 -0.045840434373052734 0.0 -0.47691343392204105 -0.044352073834956006 0.0 -0.4668095198591064 -0.0409536171796817 0.0 -0.4594720542442562 -0.037309550126544015 0.0 -0.45080394985862077 -0.039474662555923905 0.0 -0.44272658072115006 -0.03836501797446313 0.0 -0.4331845291281002 -0.037796998182859615 0.0 -0.42641887039216314 -0.0396765018591944 0.0 -0.41968549400871735 -0.038604162336164254 0.0 -0.4106510883210827 -0.03859489861377576 0.0 -0.4048589937970623 -0.03909089544115537 0.0 -0.3961947919181491 -0.036491490587420926 0.0 -0.38859760603248883 -0.037494401355587265 0.0 -0.381045835594551 -0.03585009383445021 0.0 -0.3734133092931776 -0.03377011022272337 0.0 -0.3665667539656709 -0.03374851288627958 0.0 -0.35819076307354164 -0.03110246300828003 0.0 -0.3516027827064903 -0.028656960621624795 0.0 -0.34451952275331277 -0.029559127130346082 0.0 -0.33667999463123066 -0.03051618253611392 0.0 -0.3310625142276533 -0.028429856211457376 0.0 -0.32531205635327465 -0.027381114545242464 0.0 -0.7698669001564771 -0.04536811750322564 0.0 -0.7625784357123155 -0.04589644457614317 0.0 -0.7539646948148895 -0.04474491123593456 0.0 -0.7461976911252491 -0.045840830218929735 0.0 -0.7404656244981401 -0.046595733632439094 0.0 -0.7326315442339715 -0.04645697247173679 0.0 -0.7256431234300775 -0.04603584134373594 0.0 -0.719202014007773 -0.045441690455536414 0.0 -0.7105345085363208 -0.04601447721975523 0.0 -0.7034554659727913 -0.045186297763958994 0.0 -0.6947232272232706 -0.042291109232407045 0.0 -0.6879662301278551 -0.042925593862588006 0.0 -0.6789678615968079 -0.04206361474818186 0.0 -0.6714914087916808 -0.04212163275490523 0.0 -0.6624480948028212 -0.040473914947100786 0.0 -0.6542804608069899 -0.040662758219788896 0.0 -0.6457237931808115 -0.03806149426975219 0.0 -0.6363581006038536 -0.03872582888904338 0.0 -0.6284212734986298 -0.03941692328819953 0.0 -0.6209250307896053 -0.03741281302693944 0.0 -0.6095512425223965 -0.03663572662527248 0.0 -0.601641557517529 -0.034637349026274876 0.0 -0.5921018944931222 -0.03187790185862231 0.0 -0.5833801293725669 -0.027987060549501282 0.0 -0.5737854550063359 -0.024198453499105026 0.0 -0.563421916758903 -0.019268092546542964 0.0 -0.5560008427455608 -0.011971969072264305 0.0 -0.5490234421059131 -0.004555247296930444 0.0 -0.5412759006349744 -0.00042970971850844606 0.0 -0.5347155733595267 0.002254348396364778 0.0 -0.526774431100664 0.002286809520490929 0.0 -0.5183938989932886 -0.0012456903760738052 0.0 -0.5108691853090515 -0.003665576963421697 0.0 -0.5017401223965622 -0.009274268239145032 0.0 -0.4930003506564142 -0.013803716918337056 0.0 -0.48369241584246964 -0.016297014841946626 0.0 -0.4748512785902935 -0.016599411927654614 0.0 -0.4649457597570006 -0.017236296219691565 0.0 -0.4578857480516842 -0.018715686627433177 0.0 -0.449117715556097 -0.018976942476923015 0.0 -0.44084982319129173 -0.019024271598324104 0.0 -0.43148340466998775 -0.016684775396220885 0.0 -0.4240723073123741 -0.017518056488902336 0.0 -0.41578520446235984 -0.016418256858840057 0.0 -0.40782636153925733 -0.01512426223852683 0.0 -0.39860260130287395 -0.013827239046628364 0.0 -0.3918333893632279 -0.013114965154307441 0.0 -0.38442884898088775 -0.011717937118727062 0.0 -0.37812462892945425 -0.009644497694656615 0.0 -0.3707816621066204 -0.008821541563081136 0.0 -0.36336120925149046 -0.007803441582250315 0.0 -0.35576314286705873 -0.006293207948127695 0.0 -0.3490244828840566 -0.004395064644699468 0.0 -0.3415338329159128 -0.003794078209955881 0.0 -0.33621639361340266 -0.0029010827413723256 0.0 -0.3289697425061188 -0.0005633225249617162 0.0 -0.3223237890281336 -0.0001278377722679687 0.0 -0.3160881730047351 0.0007886242659098401 0.0 -0.3108626315289532 0.002080221490967518 0.0 -0.41512666108894164 -0.030693537452604683 0.0 -0.6687765416779817 -0.050874474542706126 0.0 -0.7221209212577426 -0.0554028496857544 0.0 -0.362426511809669 -0.020581405403586574 0.0 -0.6236744221596715 -0.04584127681553043 0.0 -0.4523635712371905 -0.02852460634138752 0.0 -0.4607185999204157 -0.03814140674307763 0.0 -0.6297351972987906 -0.05098539130230812 0.0 -0.39359883012457897 -0.028834010387300196 0.0 -0.6946130681025483 -0.056457049424764094 0.0 -0.6794321433126445 -0.04932430941410173 0.0 -0.3976005176883064 -0.021690239780284903 0.0 -0.35163640505305105 -0.026613772599699326 0.0 -0.7408648567817235 -0.06323478858568998 0.0 -0.7433925974552541 -0.05200118887388873 0.0 -0.33941423973265294 -0.01101666520140715 0.0 -0.6527876041133883 -0.04711897831919802 0.0 -0.4293637682477656 -0.031452399650780456 0.0 -0.5779831297969817 -0.06689115479496274 0.0 -0.5136820438909553 -0.060074542154584236 0.0 -0.5880842523706935 -0.030622212987851942 0.0 -0.48850690506237354 -0.02057959806928942 0.0 -0.4401124566827816 -0.034969792609889756 0.0 -0.6526472710339668 -0.05322421631518758 0.0 -0.7083659980081392 -0.04917701533236092 0.0 -0.36898145988971975 -0.014501409265642865 0.0 -0.7525480983430038 -0.0604010900506993 0.0 -0.3378184279218009 -0.020069971162578845 0.0 -0.4277016044355668 -0.025196851666853724 0.0 -0.6472650173505087 -0.04461805287345638 0.0 -0.5462608591464948 -0.07556944231718017 0.0 -0.5432754079469007 -0.002848247997235781 0.0 -0.690867256965412 -0.052448820564783935 0.0 -0.3921268087249072 -0.026862685622122563 0.0 -0.6073612463095761 -0.05320656317019833 0.0 -0.47958881105744045 -0.0448595997004815 0.0 -0.42204898145220787 -0.028366360439243843 0.0 -0.6574287072624156 -0.04770099896678072 0.0 -0.715042175391761 -0.06171408176858657 0.0 -0.377608003571279 -0.030795402065997096 0.0 -0.6253373373010689 -0.04320645300771365 0.0 -0.45160035700074436 -0.030396216317729374 0.0 -0.37009975663514877 -0.026426464163716076 0.0 -0.7179275907823407 -0.05870177855192029 0.0 -0.517852267497683 -0.003968890267157583 0.0 -0.6072640381248343 -0.05780591450622989 0.0 -0.4867931509531133 -0.04590485679388748 0.0 -0.6746544457686376 -0.056869799426187716 0.0 -0.41908552118007886 -0.03311790537506158 0.0 -0.33842796252393553 -0.026055153380109514 0.0 -0.7571573637124108 -0.06862984536503279 0.0 -0.44333334984853 -0.03677072260804785 0.0 -0.64142588867417 -0.04615959792198886 0.0 -0.6744035498370088 -0.05317010866213269 0.0 -0.4139425468874687 -0.03139117174033259 0.0 -0.6831804894180811 -0.04700064384623294 0.0 -0.39214839234115073 -0.01601303902736381 0.0 -0.5995540124953095 -0.03759671961197479 0.0 -0.472111845946366 -0.02351415012255033 0.0 -0.6740630410817505 -0.050534997174021705 0.0 -0.40645527731318765 -0.026157298935015165 0.0 -0.7622319724736036 -0.06505163732057685 0.0 -0.33287130287872096 -0.02129922940386532 0.0 -0.4307494346650511 -0.03217479623558766 0.0 -0.6548697602266702 -0.04850640418368445 0.0 -0.7569826822710776 -0.04804148784881104 0.0 -0.32385333763077734 -0.004967716179179508 0.0 -0.7020616249333285 -0.05267836578317904 0.0 -0.3791000250841164 -0.0206423663598194 0.0 -0.7254261535893701 -0.04883336411990689 0.0 -0.3524334710480395 -0.008415139347509804 0.0 -0.46597531791758695 -0.03998198290192674 0.0 -0.6283387044902924 -0.056880050008628655 0.0 -0.32731231784049525 -0.012283825787774176 0.0 -0.7603132161548715 -0.05410233536259966 0.0 -0.5624774495128229 -0.07409048811482528 0.0 -0.5272404492420488 -0.07141999031292502 0.0 -0.7359498791481908 -0.06408934742025114 0.0 -0.3593745725653432 -0.029378079923441946 0.0 -0.4333821296749346 -0.03445091996749017 0.0 -0.648896423907685 -0.04505780390029975 0.0 -0.6959408341535657 -0.0608124579740106 0.0 -0.39834796106424736 -0.032326793914140894 0.0 -0.41229259725294404 -0.01953948981312822 0.0 -0.660310467090488 -0.04430721869691378 0.0 -0.44920940735246173 -0.023966828898670606 0.0 -0.6229260449883746 -0.04136480018699306 0.0 -0.7273297743918308 -0.05368776926580363 0.0 -0.35665606073502715 -0.015219133199113888 0.0 -0.5647999785553852 -0.014362166501954592 0.0 -0.5633477887904207 -0.015510814349391448 0.0 -0.7363000886207128 -0.05786001572264214 0.0 -0.3549796786397912 -0.021774550799611644 0.0 -0.7067112169694819 -0.05475781524161591 0.0 -0.3765232290385212 -0.025038333203339296 0.0 -0.5061459107628095 -0.008755440121888778 0.0 -0.4881454152894861 -0.018430450517067487 0.0 -0.44474667630100767 -0.03444911395010788 0.0 -0.6451622380926644 -0.05112276056793082 0.0 -0.4363782582988933 -0.030251625657969634 0.0 -0.6424339172333691 -0.046217130481004634 0.0 -0.5635870763289968 -0.0745296921109357 0.0 -0.5318447308739374 -0.0722599513169609 0.0 -0.5978906848953818 -0.03133241197203009 0.0 -0.6434549733483107 -0.047442216499667456 0.0 -0.4327747787652803 -0.027844115551852462 0.0 -0.3424177370149584 -0.01608103150243095 0.0 -0.7445536732553054 -0.054846095118959076 0.0 -0.4425266510195358 -0.033506894530046974 0.0 -0.6447653738041693 -0.04703381868551229 0.0 -0.5248458158476554 -0.0008212819629393974 0.0 -0.43937382032871136 -0.03624098097404518 0.0 -0.6562182631351143 -0.05790910656013343 0.0 -0.501044160225569 -0.05937583758267954 0.0 -0.5852093536216559 -0.06262159289890827 0.0 -0.664487362063703 -0.05000972527977236 0.0 -0.4123610705469043 -0.024641956972782656 0.0 -0.6996804957343628 -0.04800695960113178 0.0 -0.37701914150138693 -0.013224780904331344 0.0 -0.7672152552339203 -0.06072611254158022 0.0 -0.3243760159094674 -0.01761201650812746 0.0 -0.5856679474212044 -0.06447153779302858 0.0 -0.5096094851233126 -0.05635815636888948 0.0 -0.6625721437991297 -0.05132996122856681 0.0 -0.4248065327057306 -0.03321186899787663 0.0 -0.5443750555588649 -0.0044655468006994945 0.0 -0.6942993877211322 -0.050294833791849465 0.0 -0.383695630051556 -0.017588785481298125 0.0 -0.741225537059433 -0.047364871955137174 0.0 -0.33797394986526774 -0.005421183330616553 0.0 -0.6585773030482786 -0.048524742419084936 0.0 -0.424432638425478 -0.03183437553638731 0.0 -0.7675606951807723 -0.06850897901441064 0.0 -0.3296020831954555 -0.024530123710183004 0.0 -0.608546171404639 -0.04091871158428928 0.0 -0.4683037355983158 -0.026995470144198088 0.0 -0.5973058820614687 -0.056217828096378125 0.0 -0.4925483012555521 -0.04801263895251739 0.0 -0.321012744195901 -0.007101232398623749 0.0 -0.7640209575789428 -0.05248386385310437 0.0 -0.4329698647359217 -0.022584438183235845 0.0 -0.6370499317407808 -0.04216087261246215 0.0 -0.6787376374719608 -0.05206647666700162 0.0 -0.40571158063198276 -0.028980865075728317 0.0 -0.5797872643900434 -0.028320182014902776 0.0 -0.5444203794194867 -0.07621072423381363 0.0 -0.39498015845194495 -0.02824834772074036 0.0 -0.6899550533763309 -0.05403923943412388 0.0 -0.3453812264702948 -0.022282914047754846 0.0 -0.7478091515788171 -0.06221823827688698 0.0 -0.7121718867429371 -0.05305230631430846 0.0 -0.3675035897414047 -0.017458264855548623 0.0 -0.3799164364901608 -0.029510396228694447 0.0 -0.7097036699654067 -0.05853280630432429 0.0 -0.7259379410249157 -0.060592550057816566 0.0 -0.3664902217281263 -0.0274294234671066 0.0 -0.39590054933480795 -0.02555305566484382 0.0 -0.6852243478275234 -0.05167772599837133 0.0 -0.48841633663673406 -0.016783569977691416 0.0 -0.7208363483198581 -0.06286096127888591 0.0 -0.37372928197174127 -0.03217437139829271 0.0 -0.6208042624722164 -0.052274389721361496 0.0 -0.4708807797145171 -0.04019267647037636 0.0 -0.6269193899798787 -0.04809444405225249 0.0 -0.46020440402650536 -0.03862553994969479 0.0 -0.6254924130206463 -0.04948365073612526 0.0 -0.4592055044647695 -0.04359079064550784 0.0 -0.3295190055878708 -0.026913903223192544 0.0 -0.7682120284834821 -0.07384103993610579 0.0 -0.6450546358732225 -0.04642118038336917 0.0 -0.434527223243488 -0.02926760805049279 0.0 -0.6412197151616076 -0.057863947193503934 0.0 -0.45581203926142266 -0.03827751037439895 0.0 -0.6390492907329323 -0.04251562456201663 0.0 -0.4403262620064854 -0.03044375014099331 0.0 -0.7072203650865017 -0.06274575958165884 0.0 -0.38805631788364314 -0.034078684435528694 0.0 -0.7457860674576237 -0.06870888153686516 0.0 -0.34869957961240816 -0.02811022721230039 0.0 -0.4139981154380315 -0.027494099390412228 0.0 -0.6672361120487362 -0.05012439732375945 0.0 -0.6829137004240519 -0.06074391573056984 0.0 -0.41216960612167786 -0.03441517286582168 0.0 -0.614295923159118 -0.058753563941199405 0.0 -0.48254871169459024 -0.04455152005343212 0.0 -0.42385576267271735 -0.033647940913920905 0.0 -0.6660884406598605 -0.05501706681711038 0.0 -0.4071758580745812 -0.031527238919282954 0.0 -0.6820153050941794 -0.05541277460942886 0.0 -0.7053890125810617 -0.057268673766722726 0.0 -0.38101840276051735 -0.027558899558957527 0.0 -0.4202300936969404 -0.025586195380034944 0.0 -0.6572318306132571 -0.04875070521647271 0.0 -0.5488524232864636 -0.005052310929478663 0.0 -0.34172129285414465 -0.02594429618339468 0.0 -0.7524009871512726 -0.0657564293124714 0.0 -0.6159391519229082 -0.042467980044805294 0.0 -0.4572784223260379 -0.0263647293318917 0.0 -0.7343439355152036 -0.05710746981696938 0.0 -0.3526824039757429 -0.019144218156890453 0.0 -0.7131354062177455 -0.04745137616338903 0.0 -0.3634590242634263 -0.010895929608538734 0.0 -0.5443979459452857 -0.0773796919470578 0.0 -0.4342854246601181 -0.035187688885353806 0.0 -0.648019282617584 -0.04496568827454522 0.0 -0.6722882545855691 -0.047530434436009066 0.0 -0.4024767442171523 -0.018800654536467083 0.0 -0.4570813761499822 -0.025083480478425114 0.0 -0.3589831697433153 -0.02483151050013048 0.0 -0.7324673411972136 -0.05989918937058566 0.0 -0.4006061460047677 -0.017409961611132778 0.0 -0.6719428190899279 -0.04412907910989101 0.0 -0.3209745747194188 -0.013551695739335535 0.0 -0.7690931127927665 -0.05681184067488046 0.0 -0.5084249024389345 -0.0070015852593600094 0.0 -0.36385516396929163 -0.022550515483217876 0.0 -0.723665831245157 -0.05740591939803953 0.0 -0.7224028693932372 -0.051368418561482034 0.0 -0.3580055074531817 -0.012069959123030844 0.0 -0.4628436656097598 -0.021128353733963302 0.0 -0.6049879207733865 -0.03651655681486764 0.0 -0.7647873012335574 -0.0470314157531369 0.0 -0.31682758422664425 -0.001390892289152744 0.0 -0.4759509819416809 -0.04169729654211944 0.0 -0.6136553593300704 -0.05161504507975525 0.0 -0.5271073812478091 -0.0034744677192999358 0.0 -0.4731521369306761 -0.025230806931883912 0.0 -0.6536389298504595 -0.047674619035070566 0.0 -0.42764738639699096 -0.031113230286748957 0.0 -0.6694148861845265 -0.059732093658485794 0.0 -0.4253645295925024 -0.035539494955491635 0.0 -0.5036936478287061 -0.011827821690562247 0.0 -0.650121547362473 -0.0466061629146434 0.0 -0.4329021977300519 -0.03424509494105843 0.0 -0.3999615136271401 -0.02733427463723634 0.0 -0.6819732583194335 -0.05199992168889478 0.0 -0.6587021485079189 -0.04606739770779595 0.0 -0.41569514829799725 -0.022591870800585098 0.0 -0.7713126917394134 -0.07207690047498005 0.0 -0.3263516071428781 -0.02414740154993469 0.0 -0.40024182853301693 -0.03136451541305148 0.0 -0.6899733651059035 -0.05755239249292984 0.0 -0.45262934156481305 -0.037303236869724414 0.0 -0.6402753157458303 -0.05321250033509766 0.0 -0.5907990148566139 -0