<?xml version="1.0" ?>
<VTKFile byte_order="LittleEndian" type="UnstructuredGrid" version="0.1">
<UnstructuredGrid>
<Piece NumberOfCells="3478" NumberOfPoints="1836">
<Points>
<DataArray NumberOfComponents="3" format="ascii" type="Float32">0.0 0.0 0.0 0.0 30.0 0.0 90.0 0.0 0.0 90.0 30.0 0.0 45.0 14.7 0.0 45.0 19.7 0.0 45.0 9.7 0.0 44.0245483899222 19.60392640201672 0.0 43.08658283818048 19.31939766255888 0.0 42.22214883490896 18.85734806151738 0.0 41.46446609407355 18.23553390593903 0.0 40.84265193849559 17.47785116511045 0.0 40.38060233744971 16.61341716184027 0.0 40.09607359798762 15.67545161009959 0.0 40.0 14.7000000000206 0.0 40.09607359798068 13.72454838993527 0.0 40.38060233743827 12.78658283818735 0.0 40.84265193848201 11.92214883490987 0.0 41.46446609406021 11.16446609407431 0.0 42.22214883489495 10.54265193849198 0.0 43.08658283817165 10.08060233744477 0.0 44.02454838991945 9.79607359798383 0.0 45.97545161007786 9.796073597983295 0.0 46.91341716181914 10.08060233744095 0.0 47.77785116509095 10.54265193848255 0.0 48.53553390592572 11.16446609406025 0.0 49.15734806150372 11.92214883488851 0.0 49.61939766255018 12.78658283815946 0.0 49.90392640201246 13.72454838990077 0.0 50.0 14.69999999997977 0.0 49.90392640201924 15.67545161006509 0.0 49.6193976625616 16.61341716181298 0.0 49.15734806151947 17.47785116508791 0.0 48.53553390594058 18.23553390592489 0.0 47.77785116510518 18.85734806150794 0.0 46.91341716182851 19.31939766255517 0.0 45.97545161008048 19.60392640201618 0.0 0.0 1.499999999999333 0.0 0.0 2.999999999999543 0.0 0.0 4.499999999999284 0.0 0.0 5.999999999997914 0.0 0.0 7.499999999996543 0.0 0.0 8.999999999992466 0.0 0.0 10.49999999998665 0.0 0.0 11.99999999998084 0.0 0.0 13.49999999997503 0.0 0.0 14.99999999996956 0.0 0.0 16.49999999997229 0.0 0.0 17.99999999997536 0.0 0.0 19.49999999997843 0.0 0.0 20.9999999999815 0.0 0.0 22.49999999998457 0.0 0.0 23.99999999998764 0.0 0.0 25.49999999999073 0.0 0.0 26.99999999999382 0.0 0.0 28.49999999999692 0.0 90.0 1.499999999999333 0.0 90.0 2.999999999999543 0.0 90.0 4.499999999999284 0.0 90.0 5.999999999997914 0.0 90.0 7.499999999996543 0.0 90.0 8.999999999992466 0.0 90.0 10.49999999998665 0.0 90.0 11.99999999998084 0.0 90.0 13.49999999997503 0.0 90.0 14.99999999996956 0.0 90.0 16.49999999997229 0.0 90.0 17.99999999997536 0.0 90.0 19.49999999997843 0.0 90.0 20.9999999999815 0.0 90.0 22.49999999998457 0.0 90.0 23.99999999998764 0.0 90.0 25.49999999999073 0.0 90.0 26.99999999999382 0.0 90.0 28.49999999999692 0.0 1.499999999999597 30.0 0.0 2.999999999999036 30.0 0.0 4.499999999998088 30.0 0.0 5.999999999997163 30.0 0.0 7.499999999997185 30.0 0.0 8.999999999997288 30.0 0.0 10.49999999999739 30.0 0.0 11.99999999999602 30.0 0.0 13.49999999999316 30.0 0.0 14.9999999999903 30.0 0.0 16.49999999998744 30.0 0.0 17.99999999998458 30.0 0.0 19.49999999998172 30.0 0.0 20.99999999997887 30.0 0.0 22.49999999997601 30.0 0.0 23.99999999997315 30.0 0.0 25.4999999999703 30.0 0.0 26.99999999996745 30.0 0.0 28.49999999996459 30.0 0.0 29.99999999996174 30.0 0.0 31.49999999995888 30.0 0.0 32.99999999995603 30.0 0.0 34.49999999995318 30.0 0.0 35.99999999995033 30.0 0.0 37.49999999994748 30.0 0.0 38.99999999994462 30.0 0.0 40.49999999994177 30.0 0.0 41.99999999993892 30.0 0.0 43.49999999993607 30.0 0.0 44.99999999993459 30.0 0.0 46.49999999994219 30.0 0.0 47.99999999995118 30.0 0.0 49.49999999996015 30.0 0.0 50.99999999996914 30.0 0.0 52.49999999997812 30.0 0.0 53.99999999998711 30.0 0.0 55.49999999999608 30.0 0.0 57.00000000000507 30.0 0.0 58.50000000001404 30.0 0.0 60.00000000002303 30.0 0.0 61.500000000032 30.0 0.0 63.00000000004099 30.0 0.0 64.50000000004795 30.0 0.0 66.00000000004582 30.0 0.0 67.50000000004296 30.0 0.0 69.00000000004009 30.0 0.0 70.50000000003723 30.0 0.0 72.00000000003436 30.0 0.0 73.5000000000315 30.0 0.0 75.00000000002863 30.0 0.0 76.50000000002578 30.0 0.0 78.00000000002291 30.0 0.0 79.50000000002005 30.0 0.0 81.0000000000172 30.0 0.0 82.50000000001431 30.0 0.0 84.00000000001147 30.0 0.0 85.50000000000858 30.0 0.0 87.00000000000573 30.0 0.0 88.50000000000286 30.0 0.0 1.499999999999597 0.0 0.0 2.999999999999036 0.0 0.0 4.499999999998088 0.0 0.0 5.999999999997163 0.0 0.0 7.499999999997185 0.0 0.0 8.999999999997288 0.0 0.0 10.49999999999739 0.0 0.0 11.99999999999602 0.0 0.0 13.49999999999316 0.0 0.0 14.9999999999903 0.0 0.0 16.49999999998744 0.0 0.0 17.99999999998458 0.0 0.0 19.49999999998172 0.0 0.0 20.99999999997887 0.0 0.0 22.49999999997601 0.0 0.0 23.99999999997315 0.0 0.0 25.4999999999703 0.0 0.0 26.99999999996745 0.0 0.0 28.49999999996459 0.0 0.0 29.99999999996174 0.0 0.0 31.49999999995888 0.0 0.0 32.99999999995603 0.0 0.0 34.49999999995318 0.0 0.0 35.99999999995033 0.0 0.0 37.49999999994748 0.0 0.0 38.99999999994462 0.0 0.0 40.49999999994177 0.0 0.0 41.99999999993892 0.0 0.0 43.49999999993607 0.0 0.0 44.99999999993459 0.0 0.0 46.49999999994219 0.0 0.0 47.99999999995118 0.0 0.0 49.49999999996015 0.0 0.0 50.99999999996914 0.0 0.0 52.49999999997812 0.0 0.0 53.99999999998711 0.0 0.0 55.49999999999608 0.0 0.0 57.00000000000507 0.0 0.0 58.50000000001404 0.0 0.0 60.00000000002303 0.0 0.0 61.500000000032 0.0 0.0 63.00000000004099 0.0 0.0 64.50000000004795 0.0 0.0 66.00000000004582 0.0 0.0 67.50000000004296 0.0 0.0 69.00000000004009 0.0 0.0 70.50000000003723 0.0 0.0 72.00000000003436 0.0 0.0 73.5000000000315 0.0 0.0 75.00000000002863 0.0 0.0 76.50000000002578 0.0 0.0 78.00000000002291 0.0 0.0 79.50000000002005 0.0 0.0 81.0000000000172 0.0 0.0 82.50000000001431 0.0 0.0 84.00000000001147 0.0 0.0 85.50000000000858 0.0 0.0 87.00000000000573 0.0 0.0 88.50000000000286 0.0 0.0 63.37364706550937 16.50964628420433 0.0 26.62635293463404 16.50964628433121 0.0 13.41978650690528 13.45950154969383 0.0 76.58021349318176 13.45950154962137 0.0 33.45476071497805 8.290175608698323 0.0 56.54523928495111 8.290175608661723 0.0 56.52897059443286 20.86236316873536 0.0 33.47102940567571 20.86236316876138 0.0 71.2830521058756 21.04460405596809 0.0 18.71694789423233 21.04460405599743 0.0 21.41980901986561 9.070463267320616 0.0 68.58019098027053 9.07046326726413 0.0 80.99914552692991 20.97721309723637 0.0 9.000854473061795 20.97721309727302 0.0 7.870305877421703 8.018059563575596 0.0 82.12969412262107 8.018059563525435 0.0 33.7165245411982 14.65399207417489 0.0 56.28347545881759 14.65399207414136 0.0 39.97305498366637 24.34223222603792 0.0 50.02694501636432 24.34223222603521 0.0 38.06318796926433 6.581870986627434 0.0 51.65683578806563 6.660577520338367 0.0 62.64972062822329 23.28495574336215 0.0 27.35027937196879 23.28495574342431 0.0 14.97502445613706 6.824785268959483 0.0 75.02497554396214 6.824785268919009 0.0 6.787494920844402 14.64311087002373 0.0 83.2125050791834 14.64311087005626 0.0 62.74377049329286 6.199343823534628 0.0 27.25622950671565 6.19934382349436 0.0 45.000000000016 24.81766533538266 0.0 43.95657580818752 4.66610370877416 0.0 20.65769446566512 15.12449163383865 0.0 69.34230553450763 15.12449163379761 0.0 37.96200801440695 20.41720228097835 0.0 52.03799198563937 20.41720228095547 0.0 60.84525610777352 11.56302347148087 0.0 29.15474389221305 11.56302347157453 0.0 13.9479594477568 24.07830472189175 0.0 76.05204055230455 24.07830472189373 0.0 37.10725181280449 10.48234091456723 0.0 52.87039497378214 10.64738567442688 0.0 76.13945330379045 19.16176902849947 0.0 13.86054669631562 19.16176902853507 0.0 47.5363758303687 6.338689435416557 0.0 34.86428980814253 25.34552342098224 0.0 55.13571019192649 25.34552342097093 0.0 22.30941555412428 24.72828550626092 0.0 67.69058444605145 24.72828550626487 0.0 84.713423002924 24.99937419725806 0.0 5.286576997074654 24.99937419725982 0.0 53.00114321705956 17.18011225714096 0.0 36.99885678297024 17.18011225718971 0.0 23.5598838532369 20.42784805271946 0.0 66.44011614689009 20.42784805259263 0.0 19.30012895581989 4.590769543361563 0.0 70.69987104427214 4.590769543316364 0.0 34.65194187852933 4.323942427443631 0.0 55.3509190897658 4.276953815657579 0.0 24.56326495034983 12.51090819943921 0.0 65.43673504967131 12.51090819926273 0.0 4.675281458987522 18.75593683549119 0.0 85.32471854101604 18.75593683552496 0.0 59.27549643767956 17.55657731658075 0.0 30.72450356243039 17.55657731666243 0.0 4.48422503831524 4.681086215913009 0.0 85.51577496171463 4.681086215890073 0.0 17.49653004164637 11.94727187727593 0.0 72.50346995845473 11.94727187724224 0.0 10.98527091569449 4.578615553731414 0.0 79.0147290843752 4.578615553705176 0.0 58.91405463068145 25.62404760730938 0.0 31.08594536941772 25.6240476073746 0.0 85.5241378133564 10.79876961335222 0.0 4.475862186642179 10.79876961333991 0.0 42.66656627406208 22.55964308489288 0.0 47.33343372595118 22.55964308489816 0.0 9.583286029275847 25.4002693669458 0.0 80.41671397074799 25.40026936696242 0.0 53.06845121340182 13.81856388174299 0.0 36.93154878659712 13.81856388180116 0.0 17.8174374277252 25.57763591150952 0.0 72.18256257238082 25.5776359115521 0.0 66.48712173895905 4.220888897947975 0.0 23.51287826110802 4.220888897905488 0.0 59.31833062037198 4.22591876993067 0.0 30.68166937960341 4.225918769883755 0.0 11.77463693523386 9.605550025953741 0.0 78.22536306483727 9.60555002590434 0.0 41.61323298424063 7.118443406710728 0.0 40.49821449791196 3.657232821442271 0.0 10.5266603073137 16.32186666614573 0.0 79.47333969271385 16.32186666603704 0.0 16.67405390020416 15.97604740026929 0.0 73.32594609994788 15.97604740025251 0.0 49.78436784633756 3.517636631289772 0.0 49.88839936442268 8.765969189103764 0.0 60.0639438556624 21.0617009560476 0.0 29.93605614447742 21.06170095609978 0.0 55.93957776705275 11.46129603095351 0.0 34.06042223290302 11.46129603098422 0.0 42.080133866937 26.6941411693382 0.0 47.61442067123723 26.51556330917287 0.0 39.44356817596738 9.167540042382463 0.0 29.86186672815856 8.62859477986549 0.0 60.13813327177503 8.62859477979463 0.0 81.60488436417148 11.7395599460253 0.0 8.395115635915154 11.73955994604578 0.0 56.13971841765213 17.80631872018535 0.0 33.86028158239547 17.80631872019029 0.0 46.635920
[...]
<PointData>
<DataArray Name="displ" NumberOfComponents="3" format="ascii" type="Float32">-1.0291164729832967 -0.06405857234446126 0.0 -1.044073449607463 -0.100450722527449 0.0 -0.4143351569390534 -0.002232290231294994 0.0 -0.4294356940307264 -0.0356728299605553 0.0 -0.9738017796354796 -0.07178773708721937 0.0 -0.7268326521620102 -0.1028089132248013 0.0 -0.7213951619566572 -0.007315407583165864 0.0 -0.749426556913389 -0.10022505360655797 0.0 -0.7782778081108863 -0.10108723997965902 0.0 -0.8069349533810509 -0.09411671973174082 0.0 -0.8268885509501347 -0.08842813431298824 0.0 -0.8479190654983603 -0.0815020402949184 0.0 -0.8626916181391154 -0.07489615521042377 0.0 -0.8694803120629785 -0.0679309510800219 0.0 -0.8719364547916607 -0.062415362494400974 0.0 -0.8687479576868746 -0.05698434201775681 0.0 -0.8615204785441798 -0.04861932189147889 0.0 -0.8486258515377191 -0.040118130612247095 0.0 -0.8323041886633993 -0.03246533157074294 0.0 -0.8073648512934377 -0.024800553905345215 0.0 -0.7811482065541572 -0.015786479613289668 0.0 -0.7534756714445574 -0.01002546341782967 0.0 -0.690824038918025 -0.010939281827740252 0.0 -0.6583944326395864 -0.013952741737749718 0.0 -0.6309640070810677 -0.017956838669407248 0.0 -0.6096247394360214 -0.02249432566073444 0.0 -0.5907605799891587 -0.030471973835424417 0.0 -0.5806159514353111 -0.04011965590880546 0.0 -0.5751078696617797 -0.04654687707494119 0.0 -0.5728271571136415 -0.0527954080698244 0.0 -0.574927604773239 -0.059534029902726576 0.0 -0.5830203026104669 -0.068404672205411 0.0 -0.5987294975845604 -0.07564535418409193 0.0 -0.6206185533693118 -0.08285542793672569 0.0 -0.641799944863521 -0.09255842280067145 0.0 -0.6744554771414334 -0.09660953741928963 0.0 -0.7017182592892273 -0.10086365698474817 0.0 -1.0303342866357545 -0.06432295099107184 0.0 -1.0317791317489047 -0.06612386474574096 0.0 -1.0326365381640128 -0.06957473813884783 0.0 -1.0328275856011904 -0.07078203997914495 0.0 -1.0337248705438238 -0.07181097908120206 0.0 -1.0359373663761064 -0.07308239667196649 0.0 -1.0368153841984542 -0.07537897552008703 0.0 -1.0375250576219022 -0.07609254901413878 0.0 -1.0381478743458041 -0.07909423771011216 0.0 -1.0379018565719509 -0.08150628058889638 0.0 -1.0408728638051465 -0.08448361736771857 0.0 -1.0408976264708043 -0.08628429599140813 0.0 -1.0417691890146685 -0.08711831540553372 0.0 -1.0420574392338127 -0.0895350983755438 0.0 -1.0437313819760892 -0.09083550560086412 0.0 -1.0425957672811674 -0.09351281557355454 0.0 -1.0433963898753422 -0.09462011073087309 0.0 -1.0431345360661293 -0.09678657562226375 0.0 -1.0440124814099936 -0.09961712326597973 0.0 -0.41620709985526766 -0.0029507399103000324 0.0 -0.4152971664900874 -0.005204390049366681 0.0 -0.4178587833225283 -0.007899053013735273 0.0 -0.4191317354970592 -0.008887817998070018 0.0 -0.41755390261438 -0.011513893931020945 0.0 -0.4173471541669234 -0.013946120604621727 0.0 -0.4187398000934464 -0.01489996316949575 0.0 -0.41843800428904826 -0.0166609609427877 0.0 -0.41955255836610345 -0.018856064238475228 0.0 -0.42087175681957073 -0.02019003457548503 0.0 -0.41904177799725245 -0.02115839332743885 0.0 -0.42183402882875976 -0.023827979676658652 0.0 -0.42234953258829333 -0.02554116443551382 0.0 -0.4226356764790511 -0.026645783698275017 0.0 -0.4239527071625383 -0.027863770185237627 0.0 -0.4266732725688214 -0.030568463510787083 0.0 -0.4265171928050489 -0.03174830112314088 0.0 -0.42847431122253976 -0.033725772329900226 0.0 -0.43067389885377605 -0.03338185157245475 0.0 -1.0378380955044284 -0.09926891126460702 0.0 -1.0280947064603478 -0.09864016360768237 0.0 -1.0176953467343803 -0.09682379781988376 0.0 -1.006985000073794 -0.09535645459489028 0.0 -0.9964324737957485 -0.09380244941692602 0.0 -0.9863836759474524 -0.09219484522602431 0.0 -0.976898680594165 -0.09225086136545597 0.0 -0.9662378964939925 -0.09132202125620797 0.0 -0.9569195164944074 -0.09006073571756146 0.0 -0.9475850034000853 -0.08898868079432455 0.0 -0.9381286917999304 -0.08787004982198082 0.0 -0.9298098523535707 -0.0872262429497118 0.0 -0.9180834506390865 -0.08613806438266758 0.0 -0.9083355670260548 -0.08619823922041134 0.0 -0.8979999215458244 -0.08676828204220452 0.0 -0.8888038106356773 -0.0850695475094063 0.0 -0.878829197575674 -0.0849252305265466 0.0 -0.868606306799051 -0.08488125570727771 0.0 -0.8583629181451071 -0.08432129201038338 0.0 -0.8465002933852265 -0.08477871716858752 0.0 -0.8358454556463418 -0.08512325040725525 0.0 -0.8238610083061224 -0.08527657400229827 0.0 -0.8121022418211132 -0.0880891951227378 0.0 -0.799973182069498 -0.08858859778826432 0.0 -0.7875661488197894 -0.09217510118623098 0.0 -0.7749014141558753 -0.0971104754854185 0.0 -0.7646625499983928 -0.10325799567792905 0.0 -0.7548988025492557 -0.10914506610777858 0.0 -0.7446704700989865 -0.11305276619443486 0.0 -0.7350248474498742 -0.11213237966590898 0.0 -0.724177694212964 -0.10996463361387326 0.0 -0.7152620734512931 -0.1044448574420577 0.0 -0.7061200978854408 -0.09728753259254451 0.0 -0.6954859973119603 -0.08899772617354357 0.0 -0.6838883326010049 -0.08353536265565221 0.0 -0.6709433988632773 -0.07861353247944562 0.0 -0.6579103262759445 -0.07418421533977268 0.0 -0.6459445581807804 -0.07059079749617475 0.0 -0.6341804929146352 -0.0673074459765395 0.0 -0.6210304603095983 -0.06454224554201221 0.0 -0.609779236235041 -0.05944064299242744 0.0 -0.5989981803418213 -0.058636033486575145 0.0 -0.5887799473198585 -0.05699379586269919 0.0 -0.5773468731927005 -0.05588296247806269 0.0 -0.5665781418324889 -0.05557291195334995 0.0 -0.557320092857227 -0.05382843467945128 0.0 -0.5454293884362525 -0.05323230529571184 0.0 -0.5373499430633499 -0.05298138661298369 0.0 -0.5270072968378493 -0.048989886191252864 0.0 -0.5164096516758172 -0.049538449634246515 0.0 -0.5077686870848053 -0.04666796152244996 0.0 -0.49802424550365454 -0.04490238520831344 0.0 -0.48956850652821227 -0.04525542008926298 0.0 -0.4790200933637098 -0.041428740805872846 0.0 -0.4698505175770657 -0.03926661805093119 0.0 -0.4627517486295778 -0.038590426719144554 0.0 -0.4549933673680005 -0.03974327801090232 0.0 -0.44666602205249123 -0.03603918830887683 0.0 -0.4380010147906296 -0.03625778668995161 0.0 -1.0238066569653024 -0.06290274177902372 0.0 -1.0148506564410693 -0.06300938034101897 0.0 -1.0039713888605648 -0.06144081986167722 0.0 -0.9938931362745339 -0.06298868003408853 0.0 -0.9860456873385317 -0.06354959123922324 0.0 -0.9779829650246084 -0.06331328071084666 0.0 -0.9681158254821209 -0.06353383150947883 0.0 -0.9598327919663306 -0.06323303633517331 0.0 -0.9503643048951995 -0.06336510298418245 0.0 -0.9415268854880682 -0.062451147455499983 0.0 -0.9303727524973269 -0.06107712720418642 0.0 -0.9195193419432582 -0.06028805961313305 0.0 -0.9090970928509996 -0.0603455005866823 0.0 -0.8984488232928775 -0.05911785546121443 0.0 -0.8863622063338633 -0.05788038632149712 0.0 -0.8746544151171817 -0.05876202939162676 0.0 -0.8635657207116888 -0.057036405512413874 0.0 -0.8526814335254757 -0.056079692441264525 0.0 -0.842062732112132 -0.05607965727850362 0.0 -0.8317172760713113 -0.05473843796579461 0.0 -0.8187522748757626 -0.05392824299817334 0.0 -0.8068247342434876 -0.050342922270761745 0.0 -0.7938177457525685 -0.04900262521783458 0.0 -0.7811301871844677 -0.043590403018807115 0.0 -0.7686070958763922 -0.038415392523951104 0.0 -0.7555005377679295 -0.030983026523584388 0.0 -0.7443991926097296 -0.02132482214499944 0.0 -0.7320707138028391 -0.012455077290666245 0.0 -0.7221516787487678 -0.0070421217416317475 0.0 -0.7122739279212975 -0.0031012615936681573 0.0 -0.7028651385666688 -0.003072406459610797 0.0 -0.6927308605133246 -0.006713245030887348 0.0 -0.6817216820502369 -0.009915358376154156 0.0 -0.6708713017098836 -0.016416213740060914 0.0 -0.65890111868632 -0.021552256905551438 0.0 -0.6461757738079608 -0.02455486109131018 0.0 -0.6339046708754081 -0.026149764938019328 0.0 -0.6212641485996608 -0.02638273545175566 0.0 -0.6088391710084559 -0.027770564630570573 0.0 -0.5975840770491094 -0.026037417653147973 0.0 -0.5861188014972997 -0.0265051348595536 0.0 -0.573556966719735 -0.02469465643497979 0.0 -0.5629835012548452 -0.022441617632315895 0.0 -0.5535152147897858 -0.02270890493641686 0.0 -0.5442627204481509 -0.020246022601894894 0.0 -0.5331806826212586 -0.01835036098136564 0.0 -0.5233055681218374 -0.01666128487062076 0.0 -0.5147619525922666 -0.015883765633070257 0.0 -0.5043873658326461 -0.012596377887017875 0.0 -0.495857065208977 -0.012311874045836153 0.0 -0.4870345486297466 -0.012278985084720922 0.0 -0.47786935927071267 -0.010440633786811128 0.0 -0.4699705101328638 -0.008633419358913336 0.0 -0.46131995176849855 -0.00802910423584116 0.0 -0.4541804997063484 -0.007702265216722732 0.0 -0.4453728512776411 -0.005687294270445766 0.0 -0.43721777781452625 -0.004349582644856336 0.0 -0.42886935412030064 -0.004803556148413717 0.0 -0.42170835670283363 -0.002373628461420498 0.0 -0.5504347298264367 -0.046944349250699666 0.0 -0.897053895823298 -0.07158700521045518 0.0 -0.9643052021659618 -0.07692830922510643 0.0 -0.4893115418222489 -0.03339193216841784 0.0 -0.8367826774551087 -0.0644205042300163 0.0 -0.600138514104663 -0.04135869290627399 0.0 -0.6118290524870976 -0.0571706296817049 0.0 -0.8446178350742978 -0.07233552745280508 0.0 -0.5270969807694142 -0.043232259903880334 0.0 -0.9292462679425586 -0.07891869576869422 0.0 -0.9108525774939928 -0.06921468842007347 0.0 -0.5303746915170204 -0.03336453252159116 0.0 -0.4709864873950491 -0.03433765156644194 0.0 -0.9898920368208863 -0.08642210043132514 0.0 -0.9915600337822519 -0.0716953749771474 0.0 -0.4593598855445238 -0.021232297626486023 0.0 -0.8773727657320369 -0.06681181521277034 0.0 -0.5677870578627493 -0.04898903542709029 0.0 -0.773708154324622 -0.09409600252343987 0.0 -0.685593136478531 -0.08544513015021582 0.0 -0.785957221103983 -0.046311603434058844 0.0 -0.6506838978800926 -0.03164635169737198 0.0 -0.5854920131556297 -0.0542077021254772 0.0 -0.8718112173331231 -0.0750577861519843 0.0 -0.9469949174435986 -0.06932576769149636 0.0 -0.49778542945183196 -0.024119923228490818 0.0 -1.0035694324416824 -0.08144180069679417 0.0 -0.4537107103690682 -0.028134790095723016 0.0 -0.5693323114831894 -0.03510908511544346 0.0 -0.8664420616487649 -0.06427059439217771 0.0 -0.7310741834628591 -0.10580247705775066 0.0 -0.7251275829235896 -0.009899326254407877 0.0 -0.9258025897235006 -0.07441753552481321 0.0 -0.5250017772615867 -0.0414573283880954 0.0 -0.8148684235702414 -0.07577214738520667 0.0 -0.6386603827580504 -0.0651035463985648 0.0 -0.5585571407721175 -0.04329539194728503 0.0 -0.882982554117324 -0.06698404695325068 0.0 -0.9559581619493135 -0.085015302392916 0.0 -0.5048014865111071 -0.040892334706082376 0.0 -0.8413505023853558 -0.0596663413194476 0.0 -0.5958948433185557 -0.04531851211330006 0.0 -0.4960451966083252 -0.037022809213283596 0.0 -0.9606281040641128 -0.08169643612465753 0.0 -0.6904042072613654 -0.011165955594109852 0.0 -0.8143633663574703 -0.08120375923597772 0.0 -0.6485220792610358 -0.06866271130402192 0.0 -0.9018915182364656 -0.08018968699952761 0.0 -0.5584607645333087 -0.05093359660957269 0.0 -0.45443941241869606 -0.034900212829932276 0.0 -1.0134742615359273 -0.09266851761158917 0.0 -0.5843162821973764 -0.05442956165844384 0.0 -0.8627044778017806 -0.06694998964364349 0.0 -0.9022316928001173 -0.07540261570203483 0.0 -0.5522146570560353 -0.04842866558504958 0.0 -0.9140749710630011 -0.06620226950996902 0.0 -0.5233537105558511 -0.02275297296161306 0.0 -0.8036880898105375 -0.05513423246355658 0.0 -0.6288199595504613 -0.033393549351288375 0.0 -0.9042000934209049 -0.0702634958287909 0.0 -0.5403615608737627 -0.04057471287851877 0.0 -1.0170908197780972 -0.08669761145261214 0.0 -0.44563624556914727 -0.027460341958106853 0.0 -0.5703695445396914 -0.04978136004469871 0.0 -0.8780235318403966 -0.06903358692086958 0.0 -1.0082485899821227 -0.06819745342348248 0.0 -0.4395526712256697 -0.012233966468894563 0.0 -0.940283647585022 -0.07354963009467967 0.0 -0.5097888328867303 -0.03494774406522596 0.0 -0.9679662949606621 -0.06847359295833955 0.0 -0.47610974859562794 -0.016733241879492673 0.0 -0.6201630675176438 -0.061044461420763516 0.0 -0.8421117310106789 -0.07877007948627081 0.0 -0.4406482785086319 -0.02121140452569852 0.0 -1.0137069195084514 -0.07485018296532152 0.0 -0.7531053685639247 -0.10218407242879579 0.0 -0.7051311083611452 -0.0979605382784236 0.0 -0.9824883260973161 -0.08852677718250217 0.0 -0.47942711809317995 -0.03791649101304177 0.0 -0.5719034180505097 -0.05027106712210837 0.0 -0.8713515707462622 -0.06367235737006723 0.0 -0.9301699867435043 -0.08364632224130777 0.0 -0.530813652946236 -0.04754281971260796 0.0 -0.550152297953911 -0.027690133097306543 0.0 -0.8842649861228592 -0.06403598090507813 0.0 -0.5972901162772678 -0.03339938709631969 0.0 -0.8342881840323754 -0.0604417373160362 0.0 -0.9710038511123225 -0.0739473902047474 0.0 -0.48090133347370145 -0.027165993123633842 0.0 -0.7543459002453208 -0.023563951298797098 0.0 -0.7533722379920603 -0.02607212807509742 0.0 -0.9822457648491666 -0.08081538477864361 0.0 -0.47545598897907215 -0.031891878686018275 0.0 -0.9464344800568766 -0.07721835071287457 0.0 -0.5066657790648607 -0.03907954260638913 0.0 -0.6754151800367898 -0.01676174313589881 0.0 -0.6495027974140054 -0.028954460614954138 0.0 -0.5911877357707025 -0.05239496333122977 0.0 -0.8645139206222193 -0.07181146888474764 0.0 -0.5762789293105175 -0.04529969214524991 0.0 -0.864171931754607 -0.06454629579460447 0.0 -0.7552795217273892 -0.10467883611214743 0.0 -0.7114552882042725 -0.10089850615115677 0.0 -0.8021451098778468 -0.045607182397209026 0.0 -0.8611834510147016 -0.0668612502457121 0.0 -0.5752880268162502 -0.04018033518391465 0.0 -0.46169942834482963 -0.02636840210543147 0.0 -0.992143380123222 -0.07598006028092992 0.0 -0.5827010031563714 -0.05184248963670678 0.0 -0.866083052787665 -0.06797994735638319 0.0 -0.7000517821040035 -0.00722452002845657 0.0 -0.5848761971371789 -0.05516576642184432 0.0 -0.8757560345889606 -0.08049699255603193 0.0 -0.6702805742418646 -0.08247760352491586 0.0 -0.7838539579395751 -0.08823613344535758 0.0 -0.8918153012909024 -0.06893116037506933 0.0 -0.5484026728855451 -0.036578557915561395 0.0 -0.9361445890490319 -0.06632537664697362 0.0 -0.5057034906179217 -0.01951777241903245 0.0 -1.0232719760319389 -0.08148967480967283 0.0 -0.43517747895639847 -0.02332378204295972 0.0 -0.7853188111924869 -0.0912176292627856 0.0 -0.680816211889625 -0.08178910925371068 0.0 -0.8876575500420262 -0.07323734770885203 0.0 -0.5651458736331644 -0.05043932695560755 0.0 -0.7266033870979076 -0.011010672430142759 0.0 -0.9297598467185116 -0.07003012901359275 0.0 -0.514203842879756 -0.029162396326314486 0.0 -0.9867799839919176 -0.06650643425271724 0.0 -0.45817909032828125 -0.012431084869148583 0.0 -0.8845838610580096 -0.06837793194679632 0.0 -0.5610998875755919 -0.04785423423155954 0.0 -1.0255678323346353 -0.09044510260203924 0.0 -0.4414526895147662 -0.030869125926178468 0.0 -0.8152097665617404 -0.05822588484296784 0.0 -0.6215110953311337 -0.04000470479022383 0.0 -0.8007308001577995 -0.08018451086077545 0.0 -0.6571856605066257 -0.06917069813354428 0.0 -0.434170914101263 -0.014065586596228263 0.0 -1.0172685086829738 -0.07254788873848361 0.0 -0.5769626905955684 -0.031147121820504983 0.0 -0.8532064178406914 -0.061204391436719484 0.0 -0.9101526594455857 -0.07343421156124852 0.0 -0.5407082820578765 -0.044791268776091825 0.0 -0.7767612928312794 -0.04297932031940337 0.0 -0.7290926975344082 -0.1046416348845307 0.0 -0.5293754410623738 -0.0438357905192224 0.0 -0.9246984628831296 -0.07662562890694448 0.0 -0.46222164660044934 -0.029444058408054977 0.0 -0.9979368686688875 -0.08447287455992043 0.0 -0.9525200125915437 -0.07290336239824914 0.0 -0.496729031008961 -0.030384750444321953 0.0 -0.5079316791674852 -0.04091551298219903 0.0 -0.9481961910493465 -0.0817183562554934 0.0 -0.9694359989408734 -0.08372930528081488 0.0 -0.48975456728118316 -0.03624545269084582 0.0 -0.5281608289045431 -0.03894718736593828 0.0 -0.9182294480114896 -0.07200457096551714 0.0 -0.651758545449139 -0.026364671514403002 0.0 -0.9637225533339019 -0.08792699825195167 0.0 -0.4985563432170915 -0.04259875462737044 0.0 -0.832843821174564 -0.07483583823091285 0.0 -0.6265903451301854 -0.061079207793580934 0.0 -0.8426615325236709 -0.06962296055221627 0.0 -0.6089379590394536 -0.05686600613240457 0.0 -0.8425048928357416 -0.07167660958569468 0.0 -0.6070095535487157 -0.06223406474475366 0.0 -0.44327548070151235 -0.03502352350442068 0.0 -1.029250592378509 -0.09701351102246264 0.0 -0.865284685971311 -0.06596160618148376 0.0 -0.5752808180633019 -0.04410718672391885 0.0 -0.8580460776940592 -0.08178822569637399 0.0 -0.6053104200632582 -0.05945408413412126 0.0 -0.8589889704900593 -0.05993452793602713 0.0 -0.5812204961838913 -0.04599218590305005 0.0 -0.9448940471158228 -0.0866101956740513 0.0 -0.5167832452049202 -0.04588477698442573 0.0 -0.9980612148044729 -0.09281366150161556 0.0 -0.4677888395350993 -0.03697802210102105 0.0 -0.5490185874419838 -0.04319547802732693 0.0 -0.8960423431158034 -0.06966476443126544 0.0 -0.9131262818751735 -0.08344459749323924 0.0 -0.5503176312866296 -0.05054007784413919 0.0 -0.8243239014328486 -0.08221300648295711 0.0 -0.6428712823197028 -0.06711736296695162 0.0 -0.5657721983814022 -0.05142606535277958 0.0 -0.8906166860209798 -0.07620622572934423 0.0 -0.5444394228496677 -0.04766537385053593 0.0 -0.9126115409445871 -0.07710913434005162 0.0 -0.9438814238900177 -0.07953213866795447 0.0 -0.5120547506631202 -0.040271577678981395 0.0 -0.5583149540170261 -0.039197292377149154 0.0 -0.8822579456959114 -0.06851036134967199 0.0 -0.7335316637493152 -0.012528063061594385 0.0 -0.45871746262925595 -0.03231984036384403 0.0 -1.0056982494944302 -0.08865719282322092 0.0 -0.8261216984089462 -0.06061019868668629 0.0 -0.6080032694496855 -0.037040516870228496 0.0 -0.9798974904637272 -0.07851876018726522 0.0 -0.47529822388675347 -0.029654946243056063 0.0 -0.9530235864486819 -0.0660955900010747 0.0 -0.4885112253258105 -0.016987231276168184 0.0 -0.7290566054559571 -0.10898396585172311 0.0 -0.5742718581316577 -0.05302610496914311 0.0 -0.8712637038661115 -0.0643294959336922 0.0 -0.9004669874503822 -0.06737791647200764 0.0 -0.5368031319423633 -0.02822190344061622 0.0 -0.6030837107097802 -0.038761198119831794 0.0 -0.4808836700959656 -0.03319627907054746 0.0 -0.9782302829604054 -0.08351562347821478 0.0 -0.5349011596940078 -0.02306920244242732 0.0 -0.8994586259598164 -0.0635652337132179 0.0 -0.43136036422671137 -0.020029596425876966 0.0 -1.0251030377943813 -0.07785381314561787 0.0 -0.678509361643707 -0.01417181326741572 0.0 -0.48962532428912897 -0.033609301617391237 0.0 -0.9664531489783348 -0.0803465065778281 0.0 -0.9641944974822704 -0.0713525386043768 0.0 -0.48315137078085996 -0.02185174108134424 0.0 -0.6161297427513132 -0.030901112440389403 0.0 -0.8104131197767643 -0.054056954664389534 0.0 -1.0173904560618658 -0.06557994746983295 0.0 -0.4296043868176568 -0.007296386733393744 0.0 -0.6336168656165898 -0.06146846070705317 0.0 -0.8210666289336672 -0.07406859092993813 0.0 -0.7033977749132615 -0.010644341832482949 0.0 -0.6285417551828704 -0.038498577529967735 0.0 -0.877376614643775 -0.06656412800384863 0.0 -0.5655305789455035 -0.047135028565361434 0.0 -0.8943304194484655 -0.08325643670225766 0.0 -0.5678870127241403 -0.05469782957086228 0.0 -0.671594602311442 -0.020364165376424336 0.0 -0.8729260417973796 -0.06517119986584721 0.0 -0.5711482459988396 -0.05207082594352482 0.0 -0.5334427004093976 -0.04194668456115766 0.0 -0.9148282321992504 -0.07208628782124253 0.0 -0.8835031247771291 -0.06593985026749447 0.0 -0.553782644693139 -0.03251327928086425 0.0 -1.0315020346743118 -0.0939732397431075 0.0 -0.4385500255010622 -0.03205303146618894 0.0 -0.5351706729201917 -0.046978633192885005 0.0 -0.9232395601036559 -0.08018743063285287 0.0 -0.6011831862055026 -0.05654504708886015 0.0 -0.8566579801142309 -0.07495547712275671 0.0 -0.7905234600967198 -0.08399126623693118 0.0 -0.6663844357942887 -0.07457017749988286 0.0 -0.5144091806482002 -0.03928128263098626 0.0 -0.9369998158415934 -0.07507866581051424 0.0 -0.7572