<?xml version="1.0" ?>
<VTKFile byte_order="LittleEndian" type="UnstructuredGrid" version="0.1">
<UnstructuredGrid>
<Piece NumberOfCells="3478" NumberOfPoints="1836">
<Points>
<DataArray NumberOfComponents="3" format="ascii" type="Float32">0.0 0.0 0.0 0.0 30.0 0.0 90.0 0.0 0.0 90.0 30.0 0.0 45.0 14.7 0.0 45.0 19.7 0.0 45.0 9.7 0.0 44.0245483899222 19.60392640201672 0.0 43.08658283818048 19.31939766255888 0.0 42.22214883490896 18.85734806151738 0.0 41.46446609407355 18.23553390593903 0.0 40.84265193849559 17.47785116511045 0.0 40.38060233744971 16.61341716184027 0.0 40.09607359798762 15.67545161009959 0.0 40.0 14.7000000000206 0.0 40.09607359798068 13.72454838993527 0.0 40.38060233743827 12.78658283818735 0.0 40.84265193848201 11.92214883490987 0.0 41.46446609406021 11.16446609407431 0.0 42.22214883489495 10.54265193849198 0.0 43.08658283817165 10.08060233744477 0.0 44.02454838991945 9.79607359798383 0.0 45.97545161007786 9.796073597983295 0.0 46.91341716181914 10.08060233744095 0.0 47.77785116509095 10.54265193848255 0.0 48.53553390592572 11.16446609406025 0.0 49.15734806150372 11.92214883488851 0.0 49.61939766255018 12.78658283815946 0.0 49.90392640201246 13.72454838990077 0.0 50.0 14.69999999997977 0.0 49.90392640201924 15.67545161006509 0.0 49.6193976625616 16.61341716181298 0.0 49.15734806151947 17.47785116508791 0.0 48.53553390594058 18.23553390592489 0.0 47.77785116510518 18.85734806150794 0.0 46.91341716182851 19.31939766255517 0.0 45.97545161008048 19.60392640201618 0.0 0.0 1.499999999999333 0.0 0.0 2.999999999999543 0.0 0.0 4.499999999999284 0.0 0.0 5.999999999997914 0.0 0.0 7.499999999996543 0.0 0.0 8.999999999992466 0.0 0.0 10.49999999998665 0.0 0.0 11.99999999998084 0.0 0.0 13.49999999997503 0.0 0.0 14.99999999996956 0.0 0.0 16.49999999997229 0.0 0.0 17.99999999997536 0.0 0.0 19.49999999997843 0.0 0.0 20.9999999999815 0.0 0.0 22.49999999998457 0.0 0.0 23.99999999998764 0.0 0.0 25.49999999999073 0.0 0.0 26.99999999999382 0.0 0.0 28.49999999999692 0.0 90.0 1.499999999999333 0.0 90.0 2.999999999999543 0.0 90.0 4.499999999999284 0.0 90.0 5.999999999997914 0.0 90.0 7.499999999996543 0.0 90.0 8.999999999992466 0.0 90.0 10.49999999998665 0.0 90.0 11.99999999998084 0.0 90.0 13.49999999997503 0.0 90.0 14.99999999996956 0.0 90.0 16.49999999997229 0.0 90.0 17.99999999997536 0.0 90.0 19.49999999997843 0.0 90.0 20.9999999999815 0.0 90.0 22.49999999998457 0.0 90.0 23.99999999998764 0.0 90.0 25.49999999999073 0.0 90.0 26.99999999999382 0.0 90.0 28.49999999999692 0.0 1.499999999999597 30.0 0.0 2.999999999999036 30.0 0.0 4.499999999998088 30.0 0.0 5.999999999997163 30.0 0.0 7.499999999997185 30.0 0.0 8.999999999997288 30.0 0.0 10.49999999999739 30.0 0.0 11.99999999999602 30.0 0.0 13.49999999999316 30.0 0.0 14.9999999999903 30.0 0.0 16.49999999998744 30.0 0.0 17.99999999998458 30.0 0.0 19.49999999998172 30.0 0.0 20.99999999997887 30.0 0.0 22.49999999997601 30.0 0.0 23.99999999997315 30.0 0.0 25.4999999999703 30.0 0.0 26.99999999996745 30.0 0.0 28.49999999996459 30.0 0.0 29.99999999996174 30.0 0.0 31.49999999995888 30.0 0.0 32.99999999995603 30.0 0.0 34.49999999995318 30.0 0.0 35.99999999995033 30.0 0.0 37.49999999994748 30.0 0.0 38.99999999994462 30.0 0.0 40.49999999994177 30.0 0.0 41.99999999993892 30.0 0.0 43.49999999993607 30.0 0.0 44.99999999993459 30.0 0.0 46.49999999994219 30.0 0.0 47.99999999995118 30.0 0.0 49.49999999996015 30.0 0.0 50.99999999996914 30.0 0.0 52.49999999997812 30.0 0.0 53.99999999998711 30.0 0.0 55.49999999999608 30.0 0.0 57.00000000000507 30.0 0.0 58.50000000001404 30.0 0.0 60.00000000002303 30.0 0.0 61.500000000032 30.0 0.0 63.00000000004099 30.0 0.0 64.50000000004795 30.0 0.0 66.00000000004582 30.0 0.0 67.50000000004296 30.0 0.0 69.00000000004009 30.0 0.0 70.50000000003723 30.0 0.0 72.00000000003436 30.0 0.0 73.5000000000315 30.0 0.0 75.00000000002863 30.0 0.0 76.50000000002578 30.0 0.0 78.00000000002291 30.0 0.0 79.50000000002005 30.0 0.0 81.0000000000172 30.0 0.0 82.50000000001431 30.0 0.0 84.00000000001147 30.0 0.0 85.50000000000858 30.0 0.0 87.00000000000573 30.0 0.0 88.50000000000286 30.0 0.0 1.499999999999597 0.0 0.0 2.999999999999036 0.0 0.0 4.499999999998088 0.0 0.0 5.999999999997163 0.0 0.0 7.499999999997185 0.0 0.0 8.999999999997288 0.0 0.0 10.49999999999739 0.0 0.0 11.99999999999602 0.0 0.0 13.49999999999316 0.0 0.0 14.9999999999903 0.0 0.0 16.49999999998744 0.0 0.0 17.99999999998458 0.0 0.0 19.49999999998172 0.0 0.0 20.99999999997887 0.0 0.0 22.49999999997601 0.0 0.0 23.99999999997315 0.0 0.0 25.4999999999703 0.0 0.0 26.99999999996745 0.0 0.0 28.49999999996459 0.0 0.0 29.99999999996174 0.0 0.0 31.49999999995888 0.0 0.0 32.99999999995603 0.0 0.0 34.49999999995318 0.0 0.0 35.99999999995033 0.0 0.0 37.49999999994748 0.0 0.0 38.99999999994462 0.0 0.0 40.49999999994177 0.0 0.0 41.99999999993892 0.0 0.0 43.49999999993607 0.0 0.0 44.99999999993459 0.0 0.0 46.49999999994219 0.0 0.0 47.99999999995118 0.0 0.0 49.49999999996015 0.0 0.0 50.99999999996914 0.0 0.0 52.49999999997812 0.0 0.0 53.99999999998711 0.0 0.0 55.49999999999608 0.0 0.0 57.00000000000507 0.0 0.0 58.50000000001404 0.0 0.0 60.00000000002303 0.0 0.0 61.500000000032 0.0 0.0 63.00000000004099 0.0 0.0 64.50000000004795 0.0 0.0 66.00000000004582 0.0 0.0 67.50000000004296 0.0 0.0 69.00000000004009 0.0 0.0 70.50000000003723 0.0 0.0 72.00000000003436 0.0 0.0 73.5000000000315 0.0 0.0 75.00000000002863 0.0 0.0 76.50000000002578 0.0 0.0 78.00000000002291 0.0 0.0 79.50000000002005 0.0 0.0 81.0000000000172 0.0 0.0 82.50000000001431 0.0 0.0 84.00000000001147 0.0 0.0 85.50000000000858 0.0 0.0 87.00000000000573 0.0 0.0 88.50000000000286 0.0 0.0 63.37364706550937 16.50964628420433 0.0 26.62635293463404 16.50964628433121 0.0 13.41978650690528 13.45950154969383 0.0 76.58021349318176 13.45950154962137 0.0 33.45476071497805 8.290175608698323 0.0 56.54523928495111 8.290175608661723 0.0 56.52897059443286 20.86236316873536 0.0 33.47102940567571 20.86236316876138 0.0 71.2830521058756 21.04460405596809 0.0 18.71694789423233 21.04460405599743 0.0 21.41980901986561 9.070463267320616 0.0 68.58019098027053 9.07046326726413 0.0 80.99914552692991 20.97721309723637 0.0 9.000854473061795 20.97721309727302 0.0 7.870305877421703 8.018059563575596 0.0 82.12969412262107 8.018059563525435 0.0 33.7165245411982 14.65399207417489 0.0 56.28347545881759 14.65399207414136 0.0 39.97305498366637 24.34223222603792 0.0 50.02694501636432 24.34223222603521 0.0 38.06318796926433 6.581870986627434 0.0 51.65683578806563 6.660577520338367 0.0 62.64972062822329 23.28495574336215 0.0 27.35027937196879 23.28495574342431 0.0 14.97502445613706 6.824785268959483 0.0 75.02497554396214 6.824785268919009 0.0 6.787494920844402 14.64311087002373 0.0 83.2125050791834 14.64311087005626 0.0 62.74377049329286 6.199343823534628 0.0 27.25622950671565 6.19934382349436 0.0 45.000000000016 24.81766533538266 0.0 43.95657580818752 4.66610370877416 0.0 20.65769446566512 15.12449163383865 0.0 69.34230553450763 15.12449163379761 0.0 37.96200801440695 20.41720228097835 0.0 52.03799198563937 20.41720228095547 0.0 60.84525610777352 11.56302347148087 0.0 29.15474389221305 11.56302347157453 0.0 13.9479594477568 24.07830472189175 0.0 76.05204055230455 24.07830472189373 0.0 37.10725181280449 10.48234091456723 0.0 52.87039497378214 10.64738567442688 0.0 76.13945330379045 19.16176902849947 0.0 13.86054669631562 19.16176902853507 0.0 47.5363758303687 6.338689435416557 0.0 34.86428980814253 25.34552342098224 0.0 55.13571019192649 25.34552342097093 0.0 22.30941555412428 24.72828550626092 0.0 67.69058444605145 24.72828550626487 0.0 84.713423002924 24.99937419725806 0.0 5.286576997074654 24.99937419725982 0.0 53.00114321705956 17.18011225714096 0.0 36.99885678297024 17.18011225718971 0.0 23.5598838532369 20.42784805271946 0.0 66.44011614689009 20.42784805259263 0.0 19.30012895581989 4.590769543361563 0.0 70.69987104427214 4.590769543316364 0.0 34.65194187852933 4.323942427443631 0.0 55.3509190897658 4.276953815657579 0.0 24.56326495034983 12.51090819943921 0.0 65.43673504967131 12.51090819926273 0.0 4.675281458987522 18.75593683549119 0.0 85.32471854101604 18.75593683552496 0.0 59.27549643767956 17.55657731658075 0.0 30.72450356243039 17.55657731666243 0.0 4.48422503831524 4.681086215913009 0.0 85.51577496171463 4.681086215890073 0.0 17.49653004164637 11.94727187727593 0.0 72.50346995845473 11.94727187724224 0.0 10.98527091569449 4.578615553731414 0.0 79.0147290843752 4.578615553705176 0.0 58.91405463068145 25.62404760730938 0.0 31.08594536941772 25.6240476073746 0.0 85.5241378133564 10.79876961335222 0.0 4.475862186642179 10.79876961333991 0.0 42.66656627406208 22.55964308489288 0.0 47.33343372595118 22.55964308489816 0.0 9.583286029275847 25.4002693669458 0.0 80.41671397074799 25.40026936696242 0.0 53.06845121340182 13.81856388174299 0.0 36.93154878659712 13.81856388180116 0.0 17.8174374277252 25.57763591150952 0.0 72.18256257238082 25.5776359115521 0.0 66.48712173895905 4.220888897947975 0.0 23.51287826110802 4.220888897905488 0.0 59.31833062037198 4.22591876993067 0.0 30.68166937960341 4.225918769883755 0.0 11.77463693523386 9.605550025953741 0.0 78.22536306483727 9.60555002590434 0.0 41.61323298424063 7.118443406710728 0.0 40.49821449791196 3.657232821442271 0.0 10.5266603073137 16.32186666614573 0.0 79.47333969271385 16.32186666603704 0.0 16.67405390020416 15.97604740026929 0.0 73.32594609994788 15.97604740025251 0.0 49.78436784633756 3.517636631289772 0.0 49.88839936442268 8.765969189103764 0.0 60.0639438556624 21.0617009560476 0.0 29.93605614447742 21.06170095609978 0.0 55.93957776705275 11.46129603095351 0.0 34.06042223290302 11.46129603098422 0.0 42.080133866937 26.6941411693382 0.0 47.61442067123723 26.51556330917287 0.0 39.44356817596738 9.167540042382463 0.0 29.86186672815856 8.62859477986549 0.0 60.13813327177503 8.62859477979463 0.0 81.60488436417148 11.7395599460253 0.0 8.395115635915154 11.73955994604578 0.0 56.13971841765213 17.80631872018535 0.0 33.86028158239547 17.80631872019029 0.0 46.635920
[...]
<PointData>
<DataArray Name="displ" NumberOfComponents="3" format="ascii" type="Float32">-0.3143557348078624 -0.02869910361396462 0.0 -0.3189245312723364 -0.040893640143974064 0.0 -0.12034959429562155 -0.008989784482729123 0.0 -0.12693888978024098 -0.0272305674342832 0.0 -0.2962161305722588 -0.030756732329405425 0.0 -0.21429060884364 -0.042374205828035125 0.0 -0.21372242455454868 -0.007306070702964738 0.0 -0.22076561479170304 -0.04360804472156693 0.0 -0.22926528228263734 -0.04132036824809248 0.0 -0.23779954426601246 -0.037283972200655414 0.0 -0.24192894107207058 -0.03546517491451572 0.0 -0.2484278569628751 -0.03315875442870462 0.0 -0.2530247294633271 -0.03108669005324207 0.0 -0.25552320560650155 -0.02763541510583123 0.0 -0.2568138850631185 -0.026134743727982326 0.0 -0.2563929584916237 -0.024147877587342204 0.0 -0.25392084725427344 -0.021361351549038402 0.0 -0.24984626622870493 -0.019307951339872568 0.0 -0.2440680652154413 -0.017354433316857217 0.0 -0.23732956802348323 -0.014696434796820005 0.0 -0.22865861841088314 -0.011180743306505928 0.0 -0.22109626535066068 -0.00827874207920628 0.0 -0.20619616428556936 -0.009487752844001976 0.0 -0.19752187228698156 -0.010821456977111963 0.0 -0.1898897114068222 -0.012110191911469254 0.0 -0.18375405725764898 -0.014401844035233596 0.0 -0.17735038990116817 -0.017081108707272374 0.0 -0.17420170403261234 -0.0208472015588875 0.0 -0.17306559212709086 -0.022816761203161 0.0 -0.17264416654276737 -0.024433065100575087 0.0 -0.17285658096791018 -0.027160739640846508 0.0 -0.1748555440906744 -0.030030451061691766 0.0 -0.18074278323468307 -0.03232435478273159 0.0 -0.18757890284236303 -0.034904210541648446 0.0 -0.19475682529503716 -0.03788752395152999 0.0 -0.20254344647474465 -0.04029239086175057 0.0 -0.2083613620662507 -0.04163327434943542 0.0 -0.31581481177892545 -0.02744517646666927 0.0 -0.3170980768761476 -0.027286173527301155 0.0 -0.3168878275383754 -0.02846271999954488 0.0 -0.3165646285719702 -0.029200627201991906 0.0 -0.3169829092616632 -0.029702633928881086 0.0 -0.3184827911972248 -0.03032208589628423 0.0 -0.317816983207606 -0.03191090910354153 0.0 -0.31790593730473643 -0.03141138581502654 0.0 -0.31829079313695446 -0.03346422582450714 0.0 -0.31795622692504216 -0.03465638134618021 0.0 -0.31900788684112585 -0.03649951670366294 0.0 -0.31884002796575267 -0.03666461808712884 0.0 -0.3181408626745153 -0.036163666959175174 0.0 -0.3202717622788824 -0.03786876693418774 0.0 -0.31931353853937156 -0.0384710681019834 0.0 -0.3184591499821615 -0.03989024920473057 0.0 -0.318629976052497 -0.039791190858646255 0.0 -0.31803785871919416 -0.039825335354409554 0.0 -0.31831998659607064 -0.039928349901449015 0.0 -0.12114469078223836 -0.009901497481094037 0.0 -0.1206783788065928 -0.01105742416384487 0.0 -0.12292112436255503 -0.01371699113032111 0.0 -0.122914061115575 -0.01492525389692993 0.0 -0.12270828185891787 -0.0193448669845676 0.0 -0.12225419930644249 -0.0216664107497393 0.0 -0.12412624069655187 -0.02183913144862975 0.0 -0.12371868330049568 -0.022795288973450182 0.0 -0.12360682363445616 -0.021519413714003875 0.0 -0.1244655592822867 -0.02087305242645579 0.0 -0.12245270109640985 -0.020223307768428508 0.0 -0.12408247644727773 -0.020218847443549876 0.0 -0.12497919745835946 -0.02102203944034292 0.0 -0.1240458775982927 -0.022313478505908063 0.0 -0.12495666864850537 -0.023090369131798252 0.0 -0.12502773550039326 -0.024751997578293588 0.0 -0.12559952103960184 -0.024687008891314935 0.0 -0.12617719820733328 -0.025628069042796655 0.0 -0.12829799953156582 -0.025392963223661906 0.0 -0.3163921401976409 -0.039885950141822744 0.0 -0.31242303759879075 -0.03928692928899604 0.0 -0.30801538274136975 -0.03698754562767379 0.0 -0.3046909237753819 -0.03571076771510409 0.0 -0.3008094645533304 -0.03547934494347803 0.0 -0.2973901921128769 -0.03452759254120615 0.0 -0.2946955593234758 -0.03488359676164398 0.0 -0.2918427677889399 -0.03410849516897629 0.0 -0.28939231106127794 -0.03392213548634041 0.0 -0.2864504471039829 -0.03373097914171459 0.0 -0.2839483653872343 -0.03239154760431932 0.0 -0.28092527215262253 -0.032898682433548904 0.0 -0.2772458061109177 -0.03255179821068747 0.0 -0.2744990245150784 -0.03216491493607918 0.0 -0.27169416044909084 -0.03263074392239518 0.0 -0.2688300573244322 -0.03430843035404914 0.0 -0.26573117766714477 -0.035085800640179 0.0 -0.2624398217838642 -0.03521558889605529 0.0 -0.25830299211805546 -0.03565243372433452 0.0 -0.25413315913236945 -0.034169714879126116 0.0 -0.25121153579905026 -0.035038305254033016 0.0 -0.2475329233667125 -0.03655937001924258 0.0 -0.2427322084443997 -0.03636233717058857 0.0 -0.23857372839701788 -0.03621698525323358 0.0 -0.23466976339833145 -0.03805853248269412 0.0 -0.2302388753705012 -0.039839771410990744 0.0 -0.226805900424619 -0.04376044350742888 0.0 -0.2223790815300027 -0.04695508645809318 0.0 -0.21943511710607366 -0.048631167236407855 0.0 -0.2173119219729833 -0.05011224732774829 0.0 -0.2136584474692141 -0.049720281872673425 0.0 -0.21040540965520688 -0.049915062807772595 0.0 -0.20869514256811914 -0.04585581051470876 0.0 -0.2064267233227297 -0.04341161834176319 0.0 -0.20375230490324184 -0.0400274507205177 0.0 -0.19958549127573508 -0.037069577083901614 0.0 -0.1946078789902326 -0.036953943915884385 0.0 -0.192520760022234 -0.032846754049532016 0.0 -0.18875270238518188 -0.03269692242660227 0.0 -0.1828106229168923 -0.03087160444231859 0.0 -0.17914941250426714 -0.02860717021751687 0.0 -0.17559950382823894 -0.03097095496135543 0.0 -0.17350480965430112 -0.03108321160770889 0.0 -0.17044402814453388 -0.0306329879529072 0.0 -0.16654161038726262 -0.031377760566884065 0.0 -0.16518732163513644 -0.030370615256141632 0.0 -0.16138522774794256 -0.029321596603376285 0.0 -0.15965392800328632 -0.030507852888800507 0.0 -0.15694298986728944 -0.02788699600297659 0.0 -0.15366792457055928 -0.029771235468872493 0.0 -0.15079074786513055 -0.027640418523032444 0.0 -0.147811612266845 -0.02626951505235941 0.0 -0.14609437982182077 -0.02669380388394153 0.0 -0.1410812931403488 -0.025625153715179153 0.0 -0.1391679352333501 -0.02463371071504403 0.0 -0.13661255318989637 -0.025265742071327275 0.0 -0.134263940893356 -0.026651138601598116 0.0 -0.1323732980724938 -0.026094857688946146 0.0 -0.13015788849309617 -0.02504392770192962 0.0 -0.3130171529124234 -0.028180574368157085 0.0 -0.30987220552499334 -0.029026454805801703 0.0 -0.30570904445396135 -0.02853147377965749 0.0 -0.30323603216566813 -0.02936252798037296 0.0 -0.30171576969232367 -0.02959805614525511 0.0 -0.2993035926340893 -0.030167083106246002 0.0 -0.2976200766920337 -0.029544247606320958 0.0 -0.29596051116344485 -0.028223196910756903 0.0 -0.29198434001154766 -0.029849473657688322 0.0 -0.2888147945555371 -0.028720389736683234 0.0 -0.28605200226786043 -0.027734595635032454 0.0 -0.2817738551137668 -0.028522240604498015 0.0 -0.277750594758355 -0.028920956849173306 0.0 -0.27288088986614145 -0.028509320331176712 0.0 -0.2686228206880677 -0.028127658514387425 0.0 -0.2644143743099498 -0.028114195540259575 0.0 -0.2606549406816165 -0.02667682144730307 0.0 -0.25607128227234077 -0.027169140416299992 0.0 -0.2518947399086195 -0.02647550871941639 0.0 -0.24903893784363418 -0.024307813341014995 0.0 -0.24522468700119301 -0.024891323206473425 0.0 -0.24149737058676643 -0.02361076966472735 0.0 -0.23762741890119574 -0.022752631343554233 0.0 -0.2343379269217998 -0.021084374707942968 0.0 -0.22948388727064162 -0.01890063566514443 0.0 -0.2244047365751931 -0.01681153715466451 0.0 -0.22137898226194713 -0.013356323653448946 0.0 -0.218405822390907 -0.010309714365760708 0.0 -0.21473146730083795 -0.00916213768579978 0.0 -0.2112156294684688 -0.009160399403679378 0.0 -0.2074314080931203 -0.008612693734149005 0.0 -0.20480852323000004 -0.010255458236183871 0.0 -0.20059312751793973 -0.011487017398862162 0.0 -0.1985098583543345 -0.012677995107817778 0.0 -0.1938292574595455 -0.015139255967855229 0.0 -0.18981702409641993 -0.0154404909869369 0.0 -0.185750631605327 -0.014853867364080765 0.0 -0.18177252804287053 -0.015290315036135423 0.0 -0.17878722015941717 -0.016796533211208026 0.0 -0.17640132296335106 -0.016602912737812076 0.0 -0.1718606740173219 -0.01712601967374793 0.0 -0.16912262805461434 -0.015572796360239803 0.0 -0.16558438561048094 -0.016029660489377387 0.0 -0.1628025024193255 -0.01625730906906413 0.0 -0.1596587716225876 -0.015273889374617142 0.0 -0.15518553175428318 -0.014448608619572485 0.0 -0.15317829063830474 -0.013082149821496823 0.0 -0.1508647011067223 -0.013458938648078938 0.0 -0.14714196753663947 -0.011069955899925446 0.0 -0.14332674643548396 -0.011785807468840913 0.0 -0.14102662846309688 -0.010989118060661811 0.0 -0.13795879623498106 -0.010736636559495869 0.0 -0.13603982463055508 -0.010374263342615521 0.0 -0.13352650171014635 -0.010299908797082724 0.0 -0.1325120676790805 -0.010092782668951174 0.0 -0.12828703942495448 -0.009452867941255308 0.0 -0.12594587486871994 -0.00865876149854895 0.0 -0.12448984734007477 -0.00846987500181281 0.0 -0.12330683890197329 -0.00848367161228556 0.0 -0.1652583370654501 -0.025985114970580255 0.0 -0.267078349677806 -0.0308321864681151 0.0 -0.29363922710632434 -0.032284250942177725 0.0 -0.1450064098486958 -0.024454707167636314 0.0 -0.24874290033620275 -0.027005916819243494 0.0 -0.17645403455129097 -0.021444149323403036 0.0 -0.18130337118137485 -0.03134875153651842 0.0 -0.2500077240748399 -0.032475049084067606 0.0 -0.1567579377241102 -0.02708840772604751 0.0 -0.2790676055569188 -0.03081815810994419 0.0 -0.2724223685056938 -0.027877552603632963 0.0 -0.15524779434882577 -0.01987902900273294 0.0 -0.1393175529026307 -0.025186740477431125 0.0 -0.3023301535419381 -0.035161949668501266 0.0 -0.3049580081383287 -0.03167966335072931 0.0 -0.13562909651088706 -0.02069197263791176 0.0 -0.25811787081922716 -0.027697304852369795 0.0 -0.16809930586771227 -0.024429854364267894 0.0 -0.22882484776789483 -0.041880832999905415 0.0 -0.2040128193481132 -0.038346207784823644 0.0 -0.23410712510686585 -0.019957515632650226 0.0 -0.19056641972669772 -0.018231693655076497 0.0 -0.17297629698978187 -0.031718890192089844 0.0 -0.26130001313534845 -0.03123759688571497 0.0 -0.29013114547931657 -0.030907248736392664 0.0 -0.14450690579188455 -0.01739329449451904 0.0 -0.3086984774927434 -0.03426698136545492 0.0 -0.1349347488033079 -0.024035588085920077 0.0 -0.1673597843770676 -0.01918250621538116 0.0 -0.26045755718159197 -0.02567669293148092 0.0 -0.21503155510570393 -0.04663614952521269 0.0 -0.21544309004535017 -0.009477912633501784 0.0 -0.27674897750401706 -0.03072747529802019 0.0 -0.15648339416609622 -0.025037925213792094 0.0 -0.24022567746711845 -0.03300201465675024 0.0 -0.19015694000702263 -0.03080526133693704 0.0 -0.16542576344951584 -0.021721866688878842 0.0 -0.26200031412439995 -0.026833259098476586 0.0 -0.2896691788635043 -0.03195488450468071 0.0 -0.14960043330812903 -0.02742885112719627 0.0 -0.24821610178868903 -0.02508215394160069 0.0 -0.17738819567744157 -0.02267577065478187 0.0 -0.14776858495837097 -0.02565543603058514 0.0 -0.29130759443089954 -0.03309731606117631 0.0 -0.20341454007704005 -0.010708343921316537 0.0 -0.2422401968392087 -0.036577176000805095 0.0 -0.19353046395063636 -0.034142608546882024 0.0 -0.27084622147300946 -0.03096173595807914 0.0 -0.16600236595925144 -0.029471541831437638 0.0 -0.1344023697167995 -0.02581852617734422 0.0 -0.30840645482971735 -0.03763331266347287 0.0 -0.17535297481997303 -0.02729218373881167 0.0 -0.2534516780507612 -0.027865011401130513 0.0 -0.26924621540359384 -0.031078943067351192 0.0 -0.16481300350643183 -0.03026673796697335 0.0 -0.2774712816173881 -0.029824821445264944 0.0 -0.15318180972478385 -0.01534040674639061 0.0 -0.23940964653344526 -0.023094909054077045 0.0 -0.18449614390558094 -0.017282153414506757 0.0 -0.269466644921277 -0.029206161547043284 0.0 -0.16045359820149666 -0.02173481802386824 0.0 -0.31222917613347406 -0.0366577466756345 0.0 -0.1325934987293922 -0.021443638774810727 0.0 -0.16970774684928097 -0.027132933961444998 0.0 -0.2597635217387396 -0.029291632107212418 0.0 -0.3083980594489363 -0.029469474704190136 0.0 -0.12780693876041238 -0.014049769263797515 0.0 -0.2838785353198689 -0.030353025351055343 0.0 -0.15172435308912613 -0.023521298295376306 0.0 -0.2968741717194711 -0.03057663179588618 0.0 -0.13854924806026309 -0.013738886645626811 0.0 -0.18295388986012667 -0.031647114037303754 0.0 -0.25263887673743196 -0.03461460854032882 0.0 -0.13069991071758422 -0.02313666800173096 0.0 -0.3113448832237258 -0.03133211907251018 0.0 -0.22191286202972924 -0.04512731615217227 0.0 -0.20947765033355897 -0.041813334949089516 0.0 -0.29706782690117045 -0.033445530388143005 0.0 -0.1425338371993047 -0.025516335565158414 0.0 -0.170323574855288 -0.0249662368542283 0.0 -0.257199430213961 -0.026182276655634246 0.0 -0.2807010961842599 -0.031387618177865145 0.0 -0.15784778863843812 -0.027972405707488848 0.0 -0.1612322645620565 -0.017048607974961945 0.0 -0.2655529138275568 -0.027153040485910985 0.0 -0.17586507849989877 -0.018457143644732166 0.0 -0.2491580243062803 -0.025886360930304685 0.0 -0.2970991018601739 -0.03298072792761847 0.0 -0.14191085895091068 -0.022580366568751814 0.0 -0.22355935657856044 -0.013381036894421456 0.0 -0.22441211396979344 -0.014396927155578014 0.0 -0.300301020179788 -0.03253027253532188 0.0 -0.1423239386737535 -0.02403912628343302 0.0 -0.2848562067572828 -0.03206829966303398 0.0 -0.15046968886309037 -0.026003452032013815 0.0 -0.19960778738667892 -0.01245881370985305 0.0 -0.1912751722233424 -0.01715296945100397 0.0 -0.1751881695540294 -0.03144437234540845 0.0 -0.25873813827513964 -0.0304282343218265 0.0 -0.1712681650469179 -0.02258650322284721 0.0 -0.2549408681156712 -0.027781247983656023 0.0 -0.22325421865245776 -0.04656793367579452 0.0 -0.20954289823224312 -0.04625595847502621 0.0 -0.23764102318391214 -0.021359523878259998 0.0 -0.25616482618057235 -0.0269546799765023 0.0 -0.16965030974649414 -0.021679234018516638 0.0 -0.13660269731502162 -0.02405386671354922 0.0 -0.30503457350981866 -0.03264275184275357 0.0 -0.17451001013969358 -0.027075198095323577 0.0 -0.25495299354560935 -0.03001054291432272 0.0 -0.20722533509197283 -0.009997248058206683 0.0 -0.17226466858342435 -0.029660727637145164 0.0 -0.2632500353511421 -0.032289381572352976 0.0 -0.2000834709629644 -0.037252779556169555 0.0 -0.2310196885422936 -0.037154739326463355 0.0 -0.26643339253913073 -0.027538929431418918 0.0 -0.16191141830871578 -0.0202782741427981 0.0 -0.2871758948973404 -0.0304495176759201 0.0 -0.14624556003256917 -0.0140333671332276 0.0 -0.3132285242028981 -0.03414330627772235 0.0 -0.12943991157672918 -0.02057881942004301 0.0 -0.23286047410039876 -0.040561724534534535 0.0 -0.2030792524750961 -0.038462052681611465 0.0 -0.26412048837905383 -0.03058729089320672 0.0 -0.16788740980035993 -0.030807418578454076 0.0 -0.21627551148340185 -0.00948199166516971 0.0 -0.28166670851212156 -0.029610828776770504 0.0 -0.15029195393789252 -0.019224733870036512 0.0 -0.3026606258936021 -0.030069675593031614 0.0 -0.13287040656686525 -0.01216890267422467 0.0 -0.2610570245789167 -0.030005988940455326 0.0 -0.1665537596993525 -0.024278007699736686 0.0 -0.3139041579641413 -0.037621455468060325 0.0 -0.13060715498257225 -0.024139934413230226 0.0 -0.2433418676002693 -0.024618628542883398 0.0 -0.18263838554337733 -0.02041343986443843 0.0 -0.2362052752127889 -0.035430378557726044 0.0 -0.19663236409052276 -0.034290349759468625 0.0 -0.12768691176275423 -0.018482314801631858 0.0 -0.3115683193682656 -0.03086085784325811 0.0 -0.16905839609332785 -0.018309910459321573 0.0 -0.25568510761529284 -0.026085475310155787 0.0 -0.2704293310968045 -0.03072240887956934 0.0 -0.16245481299299244 -0.025932105444831193 0.0 -0.23166004029187454 -0.019086697048275782 0.0 -0.215506739672533 -0.04612431208803255 0.0 -0.15859736061699034 -0.02711961436775339 0.0 -0.2768607887303507 -0.0315054132685184 0.0 -0.13779863248374039 -0.022632182870756606 0.0 -0.3050768560606711 -0.03478281732338667 0.0 -0.2902782053895488 -0.031264218392605146 0.0 -0.14559845722720643 -0.021926292601260788 0.0 -0.15014122027778753 -0.027459137161760894 0.0 -0.28670606936446424 -0.03152243341967893 0.0 -0.2946129856464873 -0.032355428463464384 0.0 -0.145451173193573 -0.02574780563896964 0.0 -0.15632039497960182 -0.02360782363876969 0.0 -0.27342112531864154 -0.02950055902517851 0.0 -0.1915864255427604 -0.014981484082956931 0.0 -0.29144568233348617 -0.03178026513373301 0.0 -0.147329070804204 -0.027006132955440226 0.0 -0.24817171095992543 -0.03266074443872659 0.0 -0.18667416355017574 -0.03206598837426643 0.0 -0.24736078852880142 -0.030926554543866235 0.0 -0.18228081891653736 -0.029636701934655202 0.0 -0.24578152430433772 -0.03079759351892023 0.0 -0.1833053364355663 -0.02999935921057082 0.0 -0.1309450278649513 -0.025904439794546416 0.0 -0.31392042882862214 -0.04020209222456928 0.0 -0.25612627827133694 -0.026602058016776214 0.0 -0.17060096671978306 -0.021227627034891 0.0 -0.2580563974726417 -0.03284083620846389 0.0 -0.17818395733308912 -0.02970529820158627 0.0 -0.25320489266352064 -0.02515803850939504 0.0 -0.17354131593723868 -0.022328639018288483 0.0 -0.2858597009565626 -0.03218703835264368 0.0 -0.1528213729341665 -0.027201333144007123 0.0 -0.3014610694276807 -0.03672783433785987 0.0 -0.13762699056127517 -0.024966466199243424 0.0 -0.1630069100711217 -0.022608829313363797 0.0 -0.26677817449215724 -0.02876036706726277 0.0 -0.2754548217237034 -0.03155858814958915 0.0 -0.1632540524183363 -0.028135241667565813 0.0 -0.24717198197641352 -0.0356382169457258 0.0 -0.19233284034654616 -0.03297898484181621 0.0 -0.16790888985060162 -0.03092703449208054 0.0 -0.26644239588004215 -0.03144550639938111 0.0 -0.16149760088153475 -0.03014713237080945 0.0 -0.27416841558042576 -0.030572055829433925 0.0 -0.2838508106438287 -0.031571068262338464 0.0 -0.15224191944339194 -0.026156780007880093 0.0 -0.16472224738380073 -0.021161544976476234 0.0 -0.2629688324624514 -0.028053204291808062 0.0 -0.2170347771178169 -0.010666099330869478 0.0 -0.13552033503760316 -0.024418212181304185 0.0 -0.3065628302716029 -0.036050952723430944 0.0 -0.24608499331138853 -0.02504126295686884 0.0 -0.17862040649448716 -0.019579472497119214 0.0 -0.29935268135303567 -0.032875391161181225 0.0 -0.14112523224396728 -0.023787135219769696 0.0 -0.2936347138549493 -0.030158074877569684 0.0 -0.14103530357891594 -0.014351270196487166 0.0 -0.21388984297783004 -0.049545065281522326 0.0 -0.17136153814144178 -0.025362900435953874 0.0 -0.2566142016501383 -0.026373334454081823 0.0 -0.2708932204414535 -0.028309881786212337 0.0 -0.15602920229452816 -0.01721095579367004 0.0 -0.1803913457722031 -0.019844153412600977 0.0 -0.1429733285675408 -0.02365434106100702 0.0 -0.2976938206794856 -0.0327859304566387 0.0 -0.15587958140497715 -0.016037312940620933 0.0 -0.27230131910670835 -0.028387184693834965 0.0 -0.12767584520407715 -0.021322931441309947 0.0 -0.314198468578683 -0.03269009264260625 0.0 -0.19967852695157398 -0.01150629978484349 0.0 -0.14535458269570534 -0.02374209157282145 0.0 -0.29406245082387644 -0.03248137197956012 0.0 -0.29522665696698885 -0.03270440312376596 0.0 -0.14102394326816256 -0.01789957163053634 0.0 -0.1814494236955526 -0.01779677302867666 0.0 -0.24203629773548777 -0.023643018186369928 0.0 -0.3115609880743034 -0.029012882010387823 0.0 -0.1255123220970605 -0.01136000533799283 0.0 -0.18911321362354366 -0.031197263752012618 0.0 -0.24322953811300593 -0.03346709468214272 0.0 -0.2084866882134486 -0.010177211374257467 0.0 -0.1853978076811116 -0.020001953128767284 0.0 -0.2593900566122583 -0.028569308046597075 0.0 -0.16738497844643785 -0.02347660073064828 0.0 -0.26917421061262964 -0.03205857793803461 0.0 -0.16736442551497482 -0.02934906036785597 0.0 -0.19799771466304308 -0.013940255581817254 0.0 -0.2564827692700848 -0.027739251498731844 0.0 -0.169932934653479 -0.025659470457234858 0.0 -0.15875268254036753 -0.02472945304354912 0.0 -0.272311732415668 -0.02990545016511029 0.0 -0.26445786734356447 -0.026761784556694326 0.0 -0.16169704520162487 -0.01945529880413465 0.0 -0.3158033533394856 -0.039820307900772255 0.0 -0.12839455290033921 