<?xml version="1.0" ?>
<VTKFile byte_order="LittleEndian" type="UnstructuredGrid" version="0.1">
<UnstructuredGrid>
<Piece NumberOfCells="3478" NumberOfPoints="1836">
<Points>
<DataArray NumberOfComponents="3" format="ascii" type="Float32">0.0 0.0 0.0 0.0 30.0 0.0 90.0 0.0 0.0 90.0 30.0 0.0 45.0 14.7 0.0 45.0 19.7 0.0 45.0 9.7 0.0 44.0245483899222 19.60392640201672 0.0 43.08658283818048 19.31939766255888 0.0 42.22214883490896 18.85734806151738 0.0 41.46446609407355 18.23553390593903 0.0 40.84265193849559 17.47785116511045 0.0 40.38060233744971 16.61341716184027 0.0 40.09607359798762 15.67545161009959 0.0 40.0 14.7000000000206 0.0 40.09607359798068 13.72454838993527 0.0 40.38060233743827 12.78658283818735 0.0 40.84265193848201 11.92214883490987 0.0 41.46446609406021 11.16446609407431 0.0 42.22214883489495 10.54265193849198 0.0 43.08658283817165 10.08060233744477 0.0 44.02454838991945 9.79607359798383 0.0 45.97545161007786 9.796073597983295 0.0 46.91341716181914 10.08060233744095 0.0 47.77785116509095 10.54265193848255 0.0 48.53553390592572 11.16446609406025 0.0 49.15734806150372 11.92214883488851 0.0 49.61939766255018 12.78658283815946 0.0 49.90392640201246 13.72454838990077 0.0 50.0 14.69999999997977 0.0 49.90392640201924 15.67545161006509 0.0 49.6193976625616 16.61341716181298 0.0 49.15734806151947 17.47785116508791 0.0 48.53553390594058 18.23553390592489 0.0 47.77785116510518 18.85734806150794 0.0 46.91341716182851 19.31939766255517 0.0 45.97545161008048 19.60392640201618 0.0 0.0 1.499999999999333 0.0 0.0 2.999999999999543 0.0 0.0 4.499999999999284 0.0 0.0 5.999999999997914 0.0 0.0 7.499999999996543 0.0 0.0 8.999999999992466 0.0 0.0 10.49999999998665 0.0 0.0 11.99999999998084 0.0 0.0 13.49999999997503 0.0 0.0 14.99999999996956 0.0 0.0 16.49999999997229 0.0 0.0 17.99999999997536 0.0 0.0 19.49999999997843 0.0 0.0 20.9999999999815 0.0 0.0 22.49999999998457 0.0 0.0 23.99999999998764 0.0 0.0 25.49999999999073 0.0 0.0 26.99999999999382 0.0 0.0 28.49999999999692 0.0 90.0 1.499999999999333 0.0 90.0 2.999999999999543 0.0 90.0 4.499999999999284 0.0 90.0 5.999999999997914 0.0 90.0 7.499999999996543 0.0 90.0 8.999999999992466 0.0 90.0 10.49999999998665 0.0 90.0 11.99999999998084 0.0 90.0 13.49999999997503 0.0 90.0 14.99999999996956 0.0 90.0 16.49999999997229 0.0 90.0 17.99999999997536 0.0 90.0 19.49999999997843 0.0 90.0 20.9999999999815 0.0 90.0 22.49999999998457 0.0 90.0 23.99999999998764 0.0 90.0 25.49999999999073 0.0 90.0 26.99999999999382 0.0 90.0 28.49999999999692 0.0 1.499999999999597 30.0 0.0 2.999999999999036 30.0 0.0 4.499999999998088 30.0 0.0 5.999999999997163 30.0 0.0 7.499999999997185 30.0 0.0 8.999999999997288 30.0 0.0 10.49999999999739 30.0 0.0 11.99999999999602 30.0 0.0 13.49999999999316 30.0 0.0 14.9999999999903 30.0 0.0 16.49999999998744 30.0 0.0 17.99999999998458 30.0 0.0 19.49999999998172 30.0 0.0 20.99999999997887 30.0 0.0 22.49999999997601 30.0 0.0 23.99999999997315 30.0 0.0 25.4999999999703 30.0 0.0 26.99999999996745 30.0 0.0 28.49999999996459 30.0 0.0 29.99999999996174 30.0 0.0 31.49999999995888 30.0 0.0 32.99999999995603 30.0 0.0 34.49999999995318 30.0 0.0 35.99999999995033 30.0 0.0 37.49999999994748 30.0 0.0 38.99999999994462 30.0 0.0 40.49999999994177 30.0 0.0 41.99999999993892 30.0 0.0 43.49999999993607 30.0 0.0 44.99999999993459 30.0 0.0 46.49999999994219 30.0 0.0 47.99999999995118 30.0 0.0 49.49999999996015 30.0 0.0 50.99999999996914 30.0 0.0 52.49999999997812 30.0 0.0 53.99999999998711 30.0 0.0 55.49999999999608 30.0 0.0 57.00000000000507 30.0 0.0 58.50000000001404 30.0 0.0 60.00000000002303 30.0 0.0 61.500000000032 30.0 0.0 63.00000000004099 30.0 0.0 64.50000000004795 30.0 0.0 66.00000000004582 30.0 0.0 67.50000000004296 30.0 0.0 69.00000000004009 30.0 0.0 70.50000000003723 30.0 0.0 72.00000000003436 30.0 0.0 73.5000000000315 30.0 0.0 75.00000000002863 30.0 0.0 76.50000000002578 30.0 0.0 78.00000000002291 30.0 0.0 79.50000000002005 30.0 0.0 81.0000000000172 30.0 0.0 82.50000000001431 30.0 0.0 84.00000000001147 30.0 0.0 85.50000000000858 30.0 0.0 87.00000000000573 30.0 0.0 88.50000000000286 30.0 0.0 1.499999999999597 0.0 0.0 2.999999999999036 0.0 0.0 4.499999999998088 0.0 0.0 5.999999999997163 0.0 0.0 7.499999999997185 0.0 0.0 8.999999999997288 0.0 0.0 10.49999999999739 0.0 0.0 11.99999999999602 0.0 0.0 13.49999999999316 0.0 0.0 14.9999999999903 0.0 0.0 16.49999999998744 0.0 0.0 17.99999999998458 0.0 0.0 19.49999999998172 0.0 0.0 20.99999999997887 0.0 0.0 22.49999999997601 0.0 0.0 23.99999999997315 0.0 0.0 25.4999999999703 0.0 0.0 26.99999999996745 0.0 0.0 28.49999999996459 0.0 0.0 29.99999999996174 0.0 0.0 31.49999999995888 0.0 0.0 32.99999999995603 0.0 0.0 34.49999999995318 0.0 0.0 35.99999999995033 0.0 0.0 37.49999999994748 0.0 0.0 38.99999999994462 0.0 0.0 40.49999999994177 0.0 0.0 41.99999999993892 0.0 0.0 43.49999999993607 0.0 0.0 44.99999999993459 0.0 0.0 46.49999999994219 0.0 0.0 47.99999999995118 0.0 0.0 49.49999999996015 0.0 0.0 50.99999999996914 0.0 0.0 52.49999999997812 0.0 0.0 53.99999999998711 0.0 0.0 55.49999999999608 0.0 0.0 57.00000000000507 0.0 0.0 58.50000000001404 0.0 0.0 60.00000000002303 0.0 0.0 61.500000000032 0.0 0.0 63.00000000004099 0.0 0.0 64.50000000004795 0.0 0.0 66.00000000004582 0.0 0.0 67.50000000004296 0.0 0.0 69.00000000004009 0.0 0.0 70.50000000003723 0.0 0.0 72.00000000003436 0.0 0.0 73.5000000000315 0.0 0.0 75.00000000002863 0.0 0.0 76.50000000002578 0.0 0.0 78.00000000002291 0.0 0.0 79.50000000002005 0.0 0.0 81.0000000000172 0.0 0.0 82.50000000001431 0.0 0.0 84.00000000001147 0.0 0.0 85.50000000000858 0.0 0.0 87.00000000000573 0.0 0.0 88.50000000000286 0.0 0.0 63.37364706550937 16.50964628420433 0.0 26.62635293463404 16.50964628433121 0.0 13.41978650690528 13.45950154969383 0.0 76.58021349318176 13.45950154962137 0.0 33.45476071497805 8.290175608698323 0.0 56.54523928495111 8.290175608661723 0.0 56.52897059443286 20.86236316873536 0.0 33.47102940567571 20.86236316876138 0.0 71.2830521058756 21.04460405596809 0.0 18.71694789423233 21.04460405599743 0.0 21.41980901986561 9.070463267320616 0.0 68.58019098027053 9.07046326726413 0.0 80.99914552692991 20.97721309723637 0.0 9.000854473061795 20.97721309727302 0.0 7.870305877421703 8.018059563575596 0.0 82.12969412262107 8.018059563525435 0.0 33.7165245411982 14.65399207417489 0.0 56.28347545881759 14.65399207414136 0.0 39.97305498366637 24.34223222603792 0.0 50.02694501636432 24.34223222603521 0.0 38.06318796926433 6.581870986627434 0.0 51.65683578806563 6.660577520338367 0.0 62.64972062822329 23.28495574336215 0.0 27.35027937196879 23.28495574342431 0.0 14.97502445613706 6.824785268959483 0.0 75.02497554396214 6.824785268919009 0.0 6.787494920844402 14.64311087002373 0.0 83.2125050791834 14.64311087005626 0.0 62.74377049329286 6.199343823534628 0.0 27.25622950671565 6.19934382349436 0.0 45.000000000016 24.81766533538266 0.0 43.95657580818752 4.66610370877416 0.0 20.65769446566512 15.12449163383865 0.0 69.34230553450763 15.12449163379761 0.0 37.96200801440695 20.41720228097835 0.0 52.03799198563937 20.41720228095547 0.0 60.84525610777352 11.56302347148087 0.0 29.15474389221305 11.56302347157453 0.0 13.9479594477568 24.07830472189175 0.0 76.05204055230455 24.07830472189373 0.0 37.10725181280449 10.48234091456723 0.0 52.87039497378214 10.64738567442688 0.0 76.13945330379045 19.16176902849947 0.0 13.86054669631562 19.16176902853507 0.0 47.5363758303687 6.338689435416557 0.0 34.86428980814253 25.34552342098224 0.0 55.13571019192649 25.34552342097093 0.0 22.30941555412428 24.72828550626092 0.0 67.69058444605145 24.72828550626487 0.0 84.713423002924 24.99937419725806 0.0 5.286576997074654 24.99937419725982 0.0 53.00114321705956 17.18011225714096 0.0 36.99885678297024 17.18011225718971 0.0 23.5598838532369 20.42784805271946 0.0 66.44011614689009 20.42784805259263 0.0 19.30012895581989 4.590769543361563 0.0 70.69987104427214 4.590769543316364 0.0 34.65194187852933 4.323942427443631 0.0 55.3509190897658 4.276953815657579 0.0 24.56326495034983 12.51090819943921 0.0 65.43673504967131 12.51090819926273 0.0 4.675281458987522 18.75593683549119 0.0 85.32471854101604 18.75593683552496 0.0 59.27549643767956 17.55657731658075 0.0 30.72450356243039 17.55657731666243 0.0 4.48422503831524 4.681086215913009 0.0 85.51577496171463 4.681086215890073 0.0 17.49653004164637 11.94727187727593 0.0 72.50346995845473 11.94727187724224 0.0 10.98527091569449 4.578615553731414 0.0 79.0147290843752 4.578615553705176 0.0 58.91405463068145 25.62404760730938 0.0 31.08594536941772 25.6240476073746 0.0 85.5241378133564 10.79876961335222 0.0 4.475862186642179 10.79876961333991 0.0 42.66656627406208 22.55964308489288 0.0 47.33343372595118 22.55964308489816 0.0 9.583286029275847 25.4002693669458 0.0 80.41671397074799 25.40026936696242 0.0 53.06845121340182 13.81856388174299 0.0 36.93154878659712 13.81856388180116 0.0 17.8174374277252 25.57763591150952 0.0 72.18256257238082 25.5776359115521 0.0 66.48712173895905 4.220888897947975 0.0 23.51287826110802 4.220888897905488 0.0 59.31833062037198 4.22591876993067 0.0 30.68166937960341 4.225918769883755 0.0 11.77463693523386 9.605550025953741 0.0 78.22536306483727 9.60555002590434 0.0 41.61323298424063 7.118443406710728 0.0 40.49821449791196 3.657232821442271 0.0 10.5266603073137 16.32186666614573 0.0 79.47333969271385 16.32186666603704 0.0 16.67405390020416 15.97604740026929 0.0 73.32594609994788 15.97604740025251 0.0 49.78436784633756 3.517636631289772 0.0 49.88839936442268 8.765969189103764 0.0 60.0639438556624 21.0617009560476 0.0 29.93605614447742 21.06170095609978 0.0 55.93957776705275 11.46129603095351 0.0 34.06042223290302 11.46129603098422 0.0 42.080133866937 26.6941411693382 0.0 47.61442067123723 26.51556330917287 0.0 39.44356817596738 9.167540042382463 0.0 29.86186672815856 8.62859477986549 0.0 60.13813327177503 8.62859477979463 0.0 81.60488436417148 11.7395599460253 0.0 8.395115635915154 11.73955994604578 0.0 56.13971841765213 17.80631872018535 0.0 33.86028158239547 17.80631872019029 0.0 46.635920
[...]
<PointData>
<DataArray Name="displ" NumberOfComponents="3" format="ascii" type="Float32">-1.0414554463481458 -0.06029939532184684 0.0 -1.0515368910428196 -0.09490522710405251 0.0 -0.4155428951343909 -0.002958645273384559 0.0 -0.4328652203420737 -0.03307784121952783 0.0 -0.9847369492557075 -0.06744932590562784 0.0 -0.7343966569748844 -0.10071757431879856 0.0 -0.7291128173472398 -0.002917203133279634 0.0 -0.7575026342842501 -0.09881735398689531 0.0 -0.7874875508120558 -0.0986257608756663 0.0 -0.8174336775437889 -0.09063190598646867 0.0 -0.8359670599938116 -0.08577960752604623 0.0 -0.8570832913012296 -0.0791302716151718 0.0 -0.8710925223952817 -0.07338024628000303 0.0 -0.8785509414640603 -0.06541294601784407 0.0 -0.8816688148416489 -0.059851955367411 0.0 -0.8783442174240329 -0.05370348946414111 0.0 -0.8704238033364343 -0.04502022522967785 0.0 -0.8570751517210596 -0.03672031445928823 0.0 -0.8415298368981268 -0.028761035884823562 0.0 -0.8170231963899658 -0.02043461328015383 0.0 -0.7898820804843815 -0.011118523721053122 0.0 -0.761903050882445 -0.006728332774373466 0.0 -0.6974724160994463 -0.006890007151216553 0.0 -0.6636150083358968 -0.009788851646475048 0.0 -0.6361524469306072 -0.013565874873069891 0.0 -0.6146711373153179 -0.01788154925482273 0.0 -0.5964802653829842 -0.026749007111255222 0.0 -0.5859545443475397 -0.03622786486200585 0.0 -0.5796562714224593 -0.0422624802490073 0.0 -0.5780379873691688 -0.04867308731546013 0.0 -0.5798717326105417 -0.05534414289430345 0.0 -0.5876993582243615 -0.06439711854115096 0.0 -0.602973419867908 -0.07192177198509055 0.0 -0.6253385050245301 -0.07925492715204412 0.0 -0.646818358440225 -0.08933567841312134 0.0 -0.6809671334641614 -0.09325643988756165 0.0 -0.7089204293394991 -0.09744629230138754 0.0 -1.0423551638620454 -0.05985883376736266 0.0 -1.0439034513822403 -0.061344444481934414 0.0 -1.0454137691501484 -0.0642404428368664 0.0 -1.0464348053174772 -0.0650478058908545 0.0 -1.047543054362956 -0.06654526540654067 0.0 -1.0502157037762208 -0.06880225616376588 0.0 -1.0492495529582877 -0.07075412642559745 0.0 -1.0500705078749035 -0.0723297580739042 0.0 -1.0499049647583867 -0.07498670866871415 0.0 -1.0488624944711393 -0.07843144303613862 0.0 -1.0502964120821094 -0.08087509252894313 0.0 -1.0512843114800656 -0.0819312184446628 0.0 -1.0511378526141089 -0.08352857411064116 0.0 -1.0518280840797263 -0.08675958424777568 0.0 -1.052430362206099 -0.08689599755574809 0.0 -1.0504787350183982 -0.08877529060679969 0.0 -1.0513860362104177 -0.09059604300199765 0.0 -1.0511822846269687 -0.09193203377251119 0.0 -1.051292894118396 -0.0940930333574541 0.0 -0.4177487094084848 -0.0036991307555042673 0.0 -0.4175729930185949 -0.005565311300092426 0.0 -0.4197704460159857 -0.0077969131669276635 0.0 -0.42104448805218075 -0.007814771495238683 0.0 -0.419255261348842 -0.009284286597129208 0.0 -0.41940890100687794 -0.01175840821886279 0.0 -0.42136269030975854 -0.012003828510871119 0.0 -0.422012062866741 -0.013985954270259612 0.0 -0.42214530806022044 -0.015707731395559255 0.0 -0.4237719152650443 -0.016833520656159267 0.0 -0.4231484698740508 -0.019106076427774326 0.0 -0.4257429204209964 -0.021657020242780545 0.0 -0.4265702195204844 -0.02330150162840584 0.0 -0.42621514648963105 -0.024534375219541674 0.0 -0.4278110676860124 -0.026513745023204884 0.0 -0.4303211091405152 -0.02947160864940602 0.0 -0.43011675861452664 -0.030695814149923492 0.0 -0.4325318892070997 -0.03191555771081988 0.0 -0.4344094428418695 -0.03117901985136281 0.0 -1.0458596033016243 -0.09430820588505547 0.0 -1.0362663650100585 -0.09303944900936974 0.0 -1.0263051805309729 -0.09188784945751312 0.0 -1.0171020274753004 -0.09024902876938128 0.0 -1.0067814923777219 -0.08843349423241936 0.0 -0.9961624534333912 -0.0861561642502055 0.0 -0.9865956327558536 -0.08505131042171385 0.0 -0.9772289544062568 -0.08433066441464171 0.0 -0.968871911088984 -0.08381734655684642 0.0 -0.9597438558907809 -0.0823547862439404 0.0 -0.9513506851597732 -0.08134200234073496 0.0 -0.9420615181710139 -0.08096790028391547 0.0 -0.9313673058657934 -0.08025487321361591 0.0 -0.9211984177866426 -0.08103403125174079 0.0 -0.9102723451217264 -0.07982163152179511 0.0 -0.8985266353097596 -0.07935744224981779 0.0 -0.8871324303268192 -0.07922563597481876 0.0 -0.8762454959420848 -0.07945392716323818 0.0 -0.8653080531247589 -0.0798860889403462 0.0 -0.8526338694110202 -0.07874364335479224 0.0 -0.8419881490636827 -0.0793109095789145 0.0 -0.8311685768180689 -0.08063101171335509 0.0 -0.819337513097236 -0.08392577702269349 0.0 -0.8068545628206644 -0.08358871376630045 0.0 -0.7942940414972677 -0.08737079696833461 0.0 -0.782216047114531 -0.09372469595794411 0.0 -0.7712190749491616 -0.10003111966251414 0.0 -0.7609843016447825 -0.10640759257679026 0.0 -0.7521170425543684 -0.10896708662631441 0.0 -0.7429296301332338 -0.10924034895051568 0.0 -0.7325503861680785 -0.10604004469033677 0.0 -0.7230666084962089 -0.10103225712530907 0.0 -0.7137498727476798 -0.09370258084432562 0.0 -0.7024573265889374 -0.08593199293178146 0.0 -0.6909150174853894 -0.07939310653550107 0.0 -0.6775581331416891 -0.0753633111468494 0.0 -0.6651842722840267 -0.0709048813346484 0.0 -0.6554703051564925 -0.06656009439999429 0.0 -0.6451982866590326 -0.06278934466601759 0.0 -0.6325831363454678 -0.05988620000315667 0.0 -0.6230710858584882 -0.05433154412462081 0.0 -0.6121160542200261 -0.053061346565595684 0.0 -0.602164715871261 -0.051268270671833246 0.0 -0.5901677907887725 -0.050861360161458855 0.0 -0.5796539254240849 -0.05180102589293481 0.0 -0.5696654053841443 -0.04924419971789622 0.0 -0.5581381293055724 -0.04919100884847934 0.0 -0.5489791924828362 -0.04873307230900303 0.0 -0.5388567221210927 -0.044965716303956335 0.0 -0.5289953281960231 -0.0455116080680234 0.0 -0.5197564073596679 -0.04328374316090351 0.0 -0.5100291994095021 -0.041124678050221436 0.0 -0.5013720770000256 -0.040821997262025005 0.0 -0.4889916227888555 -0.038787506636402756 0.0 -0.4799493075271911 -0.03653869656228309 0.0 -0.47111353714888204 -0.034844291209297794 0.0 -0.4612820327316927 -0.036742196586640165 0.0 -0.4521873979916982 -0.03362587399114704 0.0 -0.44252309126223505 -0.03346820125585021 0.0 -1.035726239779528 -0.05897710988920833 0.0 -1.0263123122042943 -0.059643308038181644 0.0 -1.0162300129463147 -0.0587026803241906 0.0 -1.005650210538358 -0.060352444223463614 0.0 -0.9969134150052217 -0.060496191450305714 0.0 -0.9877726774934534 -0.06067282920408513 0.0 -0.978181297130792 -0.06038168098977481 0.0 -0.9694459447955673 -0.06020345205778477 0.0 -0.9598971395781533 -0.06105793957029902 0.0 -0.9503431984214675 -0.06008028045750139 0.0 -0.9388574760388375 -0.05867932403480623 0.0 -0.9270661998732348 -0.058204699977784574 0.0 -0.9153526397929059 -0.05796229566205578 0.0 -0.9032122466893125 -0.05666242172367767 0.0 -0.8903670756732515 -0.05555498542312307 0.0 -0.8795944750979531 -0.05508084067858381 0.0 -0.8687041836380197 -0.05339106684215967 0.0 -0.8575181922743407 -0.05326488239367118 0.0 -0.8486848971774221 -0.053351131340093075 0.0 -0.8374978598318015 -0.05133308946999417 0.0 -0.8257857693446967 -0.05158882826991251 0.0 -0.8132047101478679 -0.04767771979209816 0.0 -0.8012199109866891 -0.04513667422084758 0.0 -0.7878448017246482 -0.039884641756121234 0.0 -0.7751198498504802 -0.03427409534036418 0.0 -0.7602932209674594 -0.027435243006257583 0.0 -0.7499207110965987 -0.017790351839577945 0.0 -0.7384829834500557 -0.00873414817001005 0.0 -0.7290530965748567 -0.0026988649187486605 0.0 -0.7195772277433782 0.0008857986867887274 0.0 -0.7102486181281212 0.0008069550883622712 0.0 -0.701479942632344 -0.002634989935545658 0.0 -0.6906886334697377 -0.0055671174493577506 0.0 -0.6797665322458099 -0.012005321580979845 0.0 -0.6684862873353008 -0.017335471269859164 0.0 -0.6550872162769269 -0.021100164474966116 0.0 -0.6435289115856558 -0.021944882921545186 0.0 -0.6316712295915453 -0.022804638717530287 0.0 -0.6191351175475599 -0.024530519448917612 0.0 -0.6071431958480911 -0.022913286811050256 0.0 -0.5948673854919759 -0.023815332671900464 0.0 -0.5830461693806749 -0.021512018609884123 0.0 -0.5715135008063831 -0.02053517747639324 0.0 -0.5615121509299627 -0.02067121572661028 0.0 -0.551731743165872 -0.017991201475362276 0.0 -0.539355409897639 -0.016981788999855876 0.0 -0.5289997594360071 -0.015836444572485227 0.0 -0.5198070267813197 -0.014713088524588443 0.0 -0.5085813783047853 -0.013277423427613776 0.0 -0.49992835763041665 -0.012421148872463586 0.0 -0.4915150118740926 -0.0117658822102238 0.0 -0.481044775398036 -0.011919872349926109 0.0 -0.4722582698296369 -0.008885042240934102 0.0 -0.4640221333660261 -0.008725030664862368 0.0 -0.4558638387712191 -0.009719784937137144 0.0 -0.4467471172006964 -0.00688880138644381 0.0 -0.43898308376332723 -0.004868734191727047 0.0 -0.4302112207307177 -0.004561562549747284 0.0 -0.4226481266688496 -0.0024793075313316202 0.0 -0.5609921521316693 -0.04084598570360472 0.0 -0.9061916207733439 -0.0689061790208166 0.0 -0.9746621098521759 -0.07209543217101175 0.0 -0.49437509267742547 -0.0282376425289197 0.0 -0.8433969551199091 -0.060254400901247215 0.0 -0.6111843432576489 -0.03560566257731607 0.0 -0.6207360019759688 -0.051526649332524925 0.0 -0.8511123259543192 -0.07011185075968707 0.0 -0.536501293897029 -0.037837362799586834 0.0 -0.9389512334355693 -0.0740050833886421 0.0 -0.916123895104025 -0.06455803610215342 0.0 -0.539200861189069 -0.02894028746723333 0.0 -0.47878049197327116 -0.0320710907289861 0.0 -1.0013198572627886 -0.07979302169383011 0.0 -1.0033627150179298 -0.06774266995432578 0.0 -0.4631853118083296 -0.016757487507583865 0.0 -0.8848944754652227 -0.06422589803885997 0.0 -0.5763218392355469 -0.043372231023605656 0.0 -0.7805436542688807 -0.09088701639317007 0.0 -0.6926835805649101 -0.08175435361872983 0.0 -0.7926312179513552 -0.04175949493155923 0.0 -0.6594542770493691 -0.02650261441218686 0.0 -0.5971408170921263 -0.04737749708410296 0.0 -0.8796850275084002 -0.07233874825744235 0.0 -0.9563205426234416 -0.0655448072225981 0.0 -0.5032825893321937 -0.020410898651664035 0.0 -1.0156314966291886 -0.07612609283695426 0.0 -0.458505563331122 -0.024310149739585386 0.0 -0.5794391670116662 -0.030003735449021348 0.0 -0.8726111957747978 -0.05991972436986615 0.0 -0.7382455509798482 -0.10215230528420258 0.0 -0.7323667973089882 -0.005288749690058819 0.0 -0.9334600036041937 -0.06899984526953054 0.0 -0.533133661476249 -0.035132393431118125 0.0 -0.8223662792153329 -0.07274094859950776 0.0 -0.6461834802703048 -0.06061929862800843 0.0 -0.5685748837810507 -0.03740917034506104 0.0 -0.8906012658520321 -0.06409771759292708 0.0 -0.9653196239650468 -0.07880178466110092 0.0 -0.514948759134859 -0.038210852603843486 0.0 -0.849034852666795 -0.05541844457592106 0.0 -0.6033008307391657 -0.03919835731586989 0.0 -0.504127179224676 -0.033022651180998217 0.0 -0.970739393034188 -0.07509195548956675 0.0 -0.6990412286308436 -0.0064170517521095 0.0 -0.8207938516482521 -0.07792780749055288 0.0 -0.6574450370450802 -0.06369946771246053 0.0 -0.9125145139401704 -0.07559222446368329 0.0 -0.5697838112574503 -0.04510074408038078 0.0 -0.461786200684026 -0.032735398018449234 0.0 -1.0227092976888477 -0.0867107797638991 0.0 -0.5905415965442065 -0.05034324224650757 0.0 -0.871500847864535 -0.06506969210126494 0.0 -0.9114593876240444 -0.07187451718027212 0.0 -0.5619240708815759 -0.04181897782738074 0.0 -0.9207653738961247 -0.06308561169236042 0.0 -0.5306896357821638 -0.019974248143944728 0.0 -0.8100980382768158 -0.050425526952069505 0.0 -0.6394199676874025 -0.028240848217250036 0.0 -0.9118859316363401 -0.06703593111783321 0.0 -0.5498721713057324 -0.03545485512968158 0.0 -1.0287478322603822 -0.08188435282463008 0.0 -0.4509620333624522 -0.025119768558041947 0.0 -0.5800534596504509 -0.043514628049178 0.0 -0.8864435093773904 -0.06705236588857419 0.0 -1.0199169617394264 -0.06377928462810625 0.0 -0.4416847078888486 -0.010952262213683587 0.0 -0.9470556574593286 -0.06814469142837137 0.0 -0.5165843380951018 -0.02904179182296514 0.0 -0.9789508326330153 -0.06508733451758564 0.0 -0.479456241052132 -0.014360230240782788 0.0 -0.6312516622141763 -0.054693434425837836 0.0 -0.8488802057119305 -0.0755373593034493 0.0 -0.44394766813527126 -0.016852766676534417 0.0 -1.025874217155269 -0.06956836545221269 0.0 -0.7602906097365891 -0.0996969927452135 0.0 -0.7129206016380116 -0.09449841415778784 0.0 -0.9941744705835225 -0.08161628053236301 0.0 -0.4883395748593321 -0.036490442717294284 0.0 -0.5792185183100188 -0.04632278158055461 0.0 -0.8798431843998161 -0.0602563408539949 0.0 -0.9421955965860543 -0.0781410011542492 0.0 -0.5423085443745486 -0.04350885560774474 0.0 -0.5584130147468734 -0.02431762426655391 0.0 -0.8885683720327361 -0.06015075534819248 0.0 -0.6076784521164303 -0.029047410493585366 0.0 -0.8414989875551397 -0.056163652752048064 0.0 -0.9813418517775869 -0.0703791682315642 0.0 -0.4857663707899449 -0.02303081327121328 0.0 -0.7609040474941826 -0.01864708682682649 0.0 -0.7591910396045274 -0.020358408393753177 0.0 -0.9940863166984227 -0.07546320755453571 0.0 -0.48182624567440374 -0.027748245962185177 0.0 -0.9536150288553239 -0.0715840362577175 0.0 -0.5137804417528932 -0.033636446528744327 0.0 -0.6835964833724568 -0.011415492201948124 0.0 -0.6577919810006535 -0.02391773283676071 0.0 -0.6022676772805913 -0.045425325113050634 0.0 -0.8718077381907166 -0.06933359692805173 0.0 -0.5858528859436741 -0.040189523228817414 0.0 -0.8711494994638586 -0.06144552359931282 0.0 -0.7616908935956346 -0.1020479274972148 0.0 -0.7188143412153702 -0.09789160028412913 0.0 -0.8095849014000208 -0.041250092049788745 0.0 -0.8688834572974207 -0.06268444258047058 0.0 -0.5854623719865665 -0.03524519457797511 0.0 -0.4666180709885777 -0.022511798390349363 0.0 -1.0048072083596533 -0.07112834523054716 0.0 -0.5921219087836974 -0.046162667392065905 0.0 -0.8739687331498495 -0.065121398645981 0.0 -0.7074998850999229 -0.001985697436940416 0.0 -0.5978104578539644 -0.048654244546258815 0.0 -0.8846926863134621 -0.07617909056074798 0.0 -0.6768282989473807 -0.07822128412723407 0.0 -0.7907514901512764 -0.08610108767036435 0.0 -0.8973746054964205 -0.06478280868444558 0.0 -0.5575255438714914 -0.03209164738532101 0.0 -0.94505897527176 -0.06346051408993196 0.0 -0.5105884993633991 -0.016877497129237997 0.0 -1.0352689684549048 -0.07748638407902718 0.0 -0.440130348958055 -0.020332600547542077 0.0 -0.7915354701516293 -0.0877348920908473 0.0 -0.6876439152947755 -0.07842901613273426 0.0 -0.8957015681612279 -0.07044507078009014 0.0 -0.5749738149258353 -0.04426121457684664 0.0 -0.7340925492587201 -0.006183293891722205 0.0 -0.9369148177426011 -0.06530234864920047 0.0 -0.520933655068686 -0.02531031721646086 0.0 -0.9982313741223982 -0.06328377640833374 0.0 -0.460422934110288 -0.01199966490380469 0.0 -0.8932336808515338 -0.06574474478457304 0.0 -0.5712168888671701 -0.04206921171363068 0.0 -1.0349794317626195 -0.08520674242041212 0.0 -0.44710306257081517 -0.029201986078575874 0.0 -0.8213306658138004 -0.054099161372557325 0.0 -0.6318514617708012 -0.03486322654322847 0.0 -0.8069732800768136 -0.07712212994466146 0.0 -0.6646865891950743 -0.06457599896023611 0.0 -0.43734222510657333 -0.011152017654721371 0.0 -1.0292244182867685 -0.0673582440823884 0.0 -0.5868922243568809 -0.026535615130349646 0.0 -0.8592091192103417 -0.05746532243110098 0.0 -0.9189322853361563 -0.07021188925346142 0.0 -0.5495543912076032 -0.03826525218393204 0.0 -0.7828977063184078 -0.037799389594602086 0.0 -0.7362597651298489 -0.10140514985255746 0.0 -0.537830784432038 -0.03744361961846573 0.0 -0.9334110960539745 -0.07283709141930005 0.0 -0.469035775329731 -0.026588293158820487 0.0 -1.010801948084093 -0.07929002443949665 0.0 -0.9609031064634002 -0.06882147272968671 0.0 -0.5015816346264687 -0.024948672924124997 0.0 -0.5177324263384877 -0.03698625083428336 0.0 -0.9582447554141945 -0.07491667462294378 0.0 -0.9796676114529546 -0.07759839929292377 0.0 -0.4986474866118888 -0.033386340848622215 0.0 -0.5367712069036159 -0.033671064502476825 0.0 -0.9246618725435333 -0.06705615096112524 0.0 -0.6619008573556527 -0.02120321778444007 0.0 -0.9739835455395273 -0.08076640840358687 0.0 -0.50972915778344 -0.03996970776618143 0.0 -0.8386020362792032 -0.07240762712385798 0.0 -0.6370111648341946 -0.05521467672822284 0.0 -0.8503937713048673 -0.06723762363325653 0.0 -0.6162123926962061 -0.05158272108499389 0.0 -0.8512322859585972 -0.0687099658084193 0.0 -0.6127240062278831 -0.05784080224434378 0.0 -0.4488114816204508 -0.032459231909421404 0.0 -1.03737111438443 -0.09071999525939428 0.0 -0.8724608809164348 -0.06235424090059633 0.0 -0.5852330522332164 -0.03822093146369974 0.0 -0.8650683995855271 -0.07672062576758763 0.0 -0.6182324550865173 -0.052988841452467045 0.0 -0.868325357432591 -0.05601857703341115 0.0 -0.5874807110594027 -0.04174563278659664 0.0 -0.9557268442967021 -0.08061844481010721 0.0 -0.5285725504786947 -0.041479715332907716 0.0 -1.0084823293628897 -0.08632260007410238 0.0 -0.47572257573708965 -0.03466032608648107 0.0 -0.5586043306706611 -0.037662115417404565 0.0 -0.9038129935985191 -0.06679557388392014 0.0 -0.9253058513314039 -0.07842350129753047 0.0 -0.5621551971438362 -0.045634697665599445 0.0 -0.8309465227298155 -0.07831468945025331 0.0 -0.6520639214602192 -0.06251833567275415 0.0 -0.5767304570379129 -0.04483162125269113 0.0 -0.9002825249191176 -0.07400174474068828 0.0 -0.5542979409886413 -0.04275090128205834 0.0 -0.9235531283936833 -0.07421525159286146 0.0 -0.9533316025629684 -0.07336418686510417 0.0 -0.5200033171540723 -0.03541611490292984 0.0 -0.5685816153882499 -0.03430494647450903 0.0 -0.889555013479066 -0.06467892213840967 0.0 -0.739660133185697 -0.008349143776556702 0.0 -0.46499925158356437 -0.031083300351841897 0.0 -1.0168383160717143 -0.08302048258673579 0.0 -0.8329818074450009 -0.056581126223397796 0.0 -0.6186859698314267 -0.03161892485678558 0.0 -0.992050853144706 -0.07268469898558705 0.0 -0.4807370082863933 -0.02502516819131978 0.0 -0.9623682539158321 -0.06347454024651143 0.0 -0.49234007787732287 -0.01559108095447767 0.0 -0.7368840165402375 -0.10554442481709732 0.0 -0.5792720820231075 -0.04940898505953954 0.0 -0.8798726070150055 -0.06140962378955238 0.0 -0.9057583855281428 -0.06302336733445334 0.0 -0.5451446444535669 -0.024374860824661594 0.0 -0.609344831042105 -0.03384592122273826 0.0 -0.4879492598404814 -0.030207705094119693 0.0 -0.9899342432877004 -0.07736595682467234 0.0 -0.5415049714864777 -0.02007739798155529 0.0 -0.9048999091603261 -0.059616219827078126 0.0 -0.4352605703583893 -0.016967251933026 0.0 -1.0372105196395767 -0.0735875851082745 0.0 -0.6863741741969125 -0.009766572978295012 0.0 -0.4956195968336355 -0.028906550175541234 0.0 -0.9770027804239293 -0.07416995812662931 0.0 -0.9746537696939621 -0.0678195644000949 0.0 -0.487494409087043 -0.01815333731707411 0.0 -0.627091677704636 -0.026274330473373738 0.0 -0.8179328224122963 -0.05033777985271501 0.0 -1.0288051446401691 -0.06163593410003769 0.0 -0.4313251377713916 -0.00760499062989368 0.0 -0.6412620114795103 -0.05659397106660816 0.0 -0.828118769198546 -0.0716401480428256 0.0 -0.7113925191178975 -0.005934030736540927 0.0 -0.6371910549208452 -0.03393207559435721 0.0 -0.8860097312817727 -0.06258110204067749 0.0 -0.5753510363765381 -0.04209588900296387 0.0 -0.904933807554356 -0.07861729046096619 0.0 -0.580094075732933 -0.04867070356080302 0.0 -0.6798942220036037 -0.015800749368344327 0.0 -0.8813181044228525 -0.06332857399352801 0.0 -0.5781575378817946 -0.04696031526172092 0.0 -0.5426089046568549 -0.03609900533547854 0.0 -0.9226710712826215 -0.06894448322734809 0.0 -0.8883521856183328 -0.061546579503704874 0.0 -0.5627649695521252 -0.027336435851634863 0.0 -1.0402457232949232 -0.08890040232062302 0.0 -0.44338430467262907 -0.030715347487828552 0.0 -0.5456576920849664 -0.041422168884673115 0.0 -0.9351394704591659 -0.07513105093880368 0.0 -0.6135725698476199 -0.049840152019162226 0.0 -0.8637778137846643 -0.07240616370707115 0.0 -0.7980666078456411 -0.08109559502904602 0.0 -0.6732077160928059 -0.0711796897432082 0.0 -0.5207731081741058 -0.03245829349535904 0.0 -0.9440760875681101 -0.06983308920748348 0.0 -0.76