<?xml version="1.0" ?>
<VTKFile byte_order="LittleEndian" type="UnstructuredGrid" version="0.1">
<UnstructuredGrid>
<Piece NumberOfCells="3478" NumberOfPoints="1836">
<Points>
<DataArray NumberOfComponents="3" format="ascii" type="Float32">0.0 0.0 0.0 0.0 30.0 0.0 90.0 0.0 0.0 90.0 30.0 0.0 45.0 14.7 0.0 45.0 19.7 0.0 45.0 9.7 0.0 44.0245483899222 19.60392640201672 0.0 43.08658283818048 19.31939766255888 0.0 42.22214883490896 18.85734806151738 0.0 41.46446609407355 18.23553390593903 0.0 40.84265193849559 17.47785116511045 0.0 40.38060233744971 16.61341716184027 0.0 40.09607359798762 15.67545161009959 0.0 40.0 14.7000000000206 0.0 40.09607359798068 13.72454838993527 0.0 40.38060233743827 12.78658283818735 0.0 40.84265193848201 11.92214883490987 0.0 41.46446609406021 11.16446609407431 0.0 42.22214883489495 10.54265193849198 0.0 43.08658283817165 10.08060233744477 0.0 44.02454838991945 9.79607359798383 0.0 45.97545161007786 9.796073597983295 0.0 46.91341716181914 10.08060233744095 0.0 47.77785116509095 10.54265193848255 0.0 48.53553390592572 11.16446609406025 0.0 49.15734806150372 11.92214883488851 0.0 49.61939766255018 12.78658283815946 0.0 49.90392640201246 13.72454838990077 0.0 50.0 14.69999999997977 0.0 49.90392640201924 15.67545161006509 0.0 49.6193976625616 16.61341716181298 0.0 49.15734806151947 17.47785116508791 0.0 48.53553390594058 18.23553390592489 0.0 47.77785116510518 18.85734806150794 0.0 46.91341716182851 19.31939766255517 0.0 45.97545161008048 19.60392640201618 0.0 0.0 1.499999999999333 0.0 0.0 2.999999999999543 0.0 0.0 4.499999999999284 0.0 0.0 5.999999999997914 0.0 0.0 7.499999999996543 0.0 0.0 8.999999999992466 0.0 0.0 10.49999999998665 0.0 0.0 11.99999999998084 0.0 0.0 13.49999999997503 0.0 0.0 14.99999999996956 0.0 0.0 16.49999999997229 0.0 0.0 17.99999999997536 0.0 0.0 19.49999999997843 0.0 0.0 20.9999999999815 0.0 0.0 22.49999999998457 0.0 0.0 23.99999999998764 0.0 0.0 25.49999999999073 0.0 0.0 26.99999999999382 0.0 0.0 28.49999999999692 0.0 90.0 1.499999999999333 0.0 90.0 2.999999999999543 0.0 90.0 4.499999999999284 0.0 90.0 5.999999999997914 0.0 90.0 7.499999999996543 0.0 90.0 8.999999999992466 0.0 90.0 10.49999999998665 0.0 90.0 11.99999999998084 0.0 90.0 13.49999999997503 0.0 90.0 14.99999999996956 0.0 90.0 16.49999999997229 0.0 90.0 17.99999999997536 0.0 90.0 19.49999999997843 0.0 90.0 20.9999999999815 0.0 90.0 22.49999999998457 0.0 90.0 23.99999999998764 0.0 90.0 25.49999999999073 0.0 90.0 26.99999999999382 0.0 90.0 28.49999999999692 0.0 1.499999999999597 30.0 0.0 2.999999999999036 30.0 0.0 4.499999999998088 30.0 0.0 5.999999999997163 30.0 0.0 7.499999999997185 30.0 0.0 8.999999999997288 30.0 0.0 10.49999999999739 30.0 0.0 11.99999999999602 30.0 0.0 13.49999999999316 30.0 0.0 14.9999999999903 30.0 0.0 16.49999999998744 30.0 0.0 17.99999999998458 30.0 0.0 19.49999999998172 30.0 0.0 20.99999999997887 30.0 0.0 22.49999999997601 30.0 0.0 23.99999999997315 30.0 0.0 25.4999999999703 30.0 0.0 26.99999999996745 30.0 0.0 28.49999999996459 30.0 0.0 29.99999999996174 30.0 0.0 31.49999999995888 30.0 0.0 32.99999999995603 30.0 0.0 34.49999999995318 30.0 0.0 35.99999999995033 30.0 0.0 37.49999999994748 30.0 0.0 38.99999999994462 30.0 0.0 40.49999999994177 30.0 0.0 41.99999999993892 30.0 0.0 43.49999999993607 30.0 0.0 44.99999999993459 30.0 0.0 46.49999999994219 30.0 0.0 47.99999999995118 30.0 0.0 49.49999999996015 30.0 0.0 50.99999999996914 30.0 0.0 52.49999999997812 30.0 0.0 53.99999999998711 30.0 0.0 55.49999999999608 30.0 0.0 57.00000000000507 30.0 0.0 58.50000000001404 30.0 0.0 60.00000000002303 30.0 0.0 61.500000000032 30.0 0.0 63.00000000004099 30.0 0.0 64.50000000004795 30.0 0.0 66.00000000004582 30.0 0.0 67.50000000004296 30.0 0.0 69.00000000004009 30.0 0.0 70.50000000003723 30.0 0.0 72.00000000003436 30.0 0.0 73.5000000000315 30.0 0.0 75.00000000002863 30.0 0.0 76.50000000002578 30.0 0.0 78.00000000002291 30.0 0.0 79.50000000002005 30.0 0.0 81.0000000000172 30.0 0.0 82.50000000001431 30.0 0.0 84.00000000001147 30.0 0.0 85.50000000000858 30.0 0.0 87.00000000000573 30.0 0.0 88.50000000000286 30.0 0.0 1.499999999999597 0.0 0.0 2.999999999999036 0.0 0.0 4.499999999998088 0.0 0.0 5.999999999997163 0.0 0.0 7.499999999997185 0.0 0.0 8.999999999997288 0.0 0.0 10.49999999999739 0.0 0.0 11.99999999999602 0.0 0.0 13.49999999999316 0.0 0.0 14.9999999999903 0.0 0.0 16.49999999998744 0.0 0.0 17.99999999998458 0.0 0.0 19.49999999998172 0.0 0.0 20.99999999997887 0.0 0.0 22.49999999997601 0.0 0.0 23.99999999997315 0.0 0.0 25.4999999999703 0.0 0.0 26.99999999996745 0.0 0.0 28.49999999996459 0.0 0.0 29.99999999996174 0.0 0.0 31.49999999995888 0.0 0.0 32.99999999995603 0.0 0.0 34.49999999995318 0.0 0.0 35.99999999995033 0.0 0.0 37.49999999994748 0.0 0.0 38.99999999994462 0.0 0.0 40.49999999994177 0.0 0.0 41.99999999993892 0.0 0.0 43.49999999993607 0.0 0.0 44.99999999993459 0.0 0.0 46.49999999994219 0.0 0.0 47.99999999995118 0.0 0.0 49.49999999996015 0.0 0.0 50.99999999996914 0.0 0.0 52.49999999997812 0.0 0.0 53.99999999998711 0.0 0.0 55.49999999999608 0.0 0.0 57.00000000000507 0.0 0.0 58.50000000001404 0.0 0.0 60.00000000002303 0.0 0.0 61.500000000032 0.0 0.0 63.00000000004099 0.0 0.0 64.50000000004795 0.0 0.0 66.00000000004582 0.0 0.0 67.50000000004296 0.0 0.0 69.00000000004009 0.0 0.0 70.50000000003723 0.0 0.0 72.00000000003436 0.0 0.0 73.5000000000315 0.0 0.0 75.00000000002863 0.0 0.0 76.50000000002578 0.0 0.0 78.00000000002291 0.0 0.0 79.50000000002005 0.0 0.0 81.0000000000172 0.0 0.0 82.50000000001431 0.0 0.0 84.00000000001147 0.0 0.0 85.50000000000858 0.0 0.0 87.00000000000573 0.0 0.0 88.50000000000286 0.0 0.0 63.37364706550937 16.50964628420433 0.0 26.62635293463404 16.50964628433121 0.0 13.41978650690528 13.45950154969383 0.0 76.58021349318176 13.45950154962137 0.0 33.45476071497805 8.290175608698323 0.0 56.54523928495111 8.290175608661723 0.0 56.52897059443286 20.86236316873536 0.0 33.47102940567571 20.86236316876138 0.0 71.2830521058756 21.04460405596809 0.0 18.71694789423233 21.04460405599743 0.0 21.41980901986561 9.070463267320616 0.0 68.58019098027053 9.07046326726413 0.0 80.99914552692991 20.97721309723637 0.0 9.000854473061795 20.97721309727302 0.0 7.870305877421703 8.018059563575596 0.0 82.12969412262107 8.018059563525435 0.0 33.7165245411982 14.65399207417489 0.0 56.28347545881759 14.65399207414136 0.0 39.97305498366637 24.34223222603792 0.0 50.02694501636432 24.34223222603521 0.0 38.06318796926433 6.581870986627434 0.0 51.65683578806563 6.660577520338367 0.0 62.64972062822329 23.28495574336215 0.0 27.35027937196879 23.28495574342431 0.0 14.97502445613706 6.824785268959483 0.0 75.02497554396214 6.824785268919009 0.0 6.787494920844402 14.64311087002373 0.0 83.2125050791834 14.64311087005626 0.0 62.74377049329286 6.199343823534628 0.0 27.25622950671565 6.19934382349436 0.0 45.000000000016 24.81766533538266 0.0 43.95657580818752 4.66610370877416 0.0 20.65769446566512 15.12449163383865 0.0 69.34230553450763 15.12449163379761 0.0 37.96200801440695 20.41720228097835 0.0 52.03799198563937 20.41720228095547 0.0 60.84525610777352 11.56302347148087 0.0 29.15474389221305 11.56302347157453 0.0 13.9479594477568 24.07830472189175 0.0 76.05204055230455 24.07830472189373 0.0 37.10725181280449 10.48234091456723 0.0 52.87039497378214 10.64738567442688 0.0 76.13945330379045 19.16176902849947 0.0 13.86054669631562 19.16176902853507 0.0 47.5363758303687 6.338689435416557 0.0 34.86428980814253 25.34552342098224 0.0 55.13571019192649 25.34552342097093 0.0 22.30941555412428 24.72828550626092 0.0 67.69058444605145 24.72828550626487 0.0 84.713423002924 24.99937419725806 0.0 5.286576997074654 24.99937419725982 0.0 53.00114321705956 17.18011225714096 0.0 36.99885678297024 17.18011225718971 0.0 23.5598838532369 20.42784805271946 0.0 66.44011614689009 20.42784805259263 0.0 19.30012895581989 4.590769543361563 0.0 70.69987104427214 4.590769543316364 0.0 34.65194187852933 4.323942427443631 0.0 55.3509190897658 4.276953815657579 0.0 24.56326495034983 12.51090819943921 0.0 65.43673504967131 12.51090819926273 0.0 4.675281458987522 18.75593683549119 0.0 85.32471854101604 18.75593683552496 0.0 59.27549643767956 17.55657731658075 0.0 30.72450356243039 17.55657731666243 0.0 4.48422503831524 4.681086215913009 0.0 85.51577496171463 4.681086215890073 0.0 17.49653004164637 11.94727187727593 0.0 72.50346995845473 11.94727187724224 0.0 10.98527091569449 4.578615553731414 0.0 79.0147290843752 4.578615553705176 0.0 58.91405463068145 25.62404760730938 0.0 31.08594536941772 25.6240476073746 0.0 85.5241378133564 10.79876961335222 0.0 4.475862186642179 10.79876961333991 0.0 42.66656627406208 22.55964308489288 0.0 47.33343372595118 22.55964308489816 0.0 9.583286029275847 25.4002693669458 0.0 80.41671397074799 25.40026936696242 0.0 53.06845121340182 13.81856388174299 0.0 36.93154878659712 13.81856388180116 0.0 17.8174374277252 25.57763591150952 0.0 72.18256257238082 25.5776359115521 0.0 66.48712173895905 4.220888897947975 0.0 23.51287826110802 4.220888897905488 0.0 59.31833062037198 4.22591876993067 0.0 30.68166937960341 4.225918769883755 0.0 11.77463693523386 9.605550025953741 0.0 78.22536306483727 9.60555002590434 0.0 41.61323298424063 7.118443406710728 0.0 40.49821449791196 3.657232821442271 0.0 10.5266603073137 16.32186666614573 0.0 79.47333969271385 16.32186666603704 0.0 16.67405390020416 15.97604740026929 0.0 73.32594609994788 15.97604740025251 0.0 49.78436784633756 3.517636631289772 0.0 49.88839936442268 8.765969189103764 0.0 60.0639438556624 21.0617009560476 0.0 29.93605614447742 21.06170095609978 0.0 55.93957776705275 11.46129603095351 0.0 34.06042223290302 11.46129603098422 0.0 42.080133866937 26.6941411693382 0.0 47.61442067123723 26.51556330917287 0.0 39.44356817596738 9.167540042382463 0.0 29.86186672815856 8.62859477986549 0.0 60.13813327177503 8.62859477979463 0.0 81.60488436417148 11.7395599460253 0.0 8.395115635915154 11.73955994604578 0.0 56.13971841765213 17.80631872018535 0.0 33.86028158239547 17.80631872019029 0.0 46.635920
[...]
<PointData>
<DataArray Name="displ" NumberOfComponents="3" format="ascii" type="Float32">-0.09323795940606079 -0.006746370264180297 0.0 -0.10125404921688665 -0.013417860998209874 0.0 -0.036107635285366944 -0.0008857825357750691 0.0 -0.03889284244566374 -0.007561252481907261 0.0 -0.09085362641588773 -0.006076839548930651 0.0 -0.0630398422758061 -0.005963246128356229 0.0 -0.06364872934942392 -0.00041019364825370527 0.0 -0.06497821140289765 -0.0065394423882237365 0.0 -0.06691044054256969 -0.006309560423261746 0.0 -0.06985109677515568 -0.0056466242325703565 0.0 -0.07013237286558908 -0.005198615141141652 0.0 -0.072462264770368 -0.00546868365274462 0.0 -0.07385126300875866 -0.005207144894270213 0.0 -0.07490640938006943 -0.005161809859876566 0.0 -0.07568547077515184 -0.00570539144810513 0.0 -0.074564830782099 -0.005640775398993074 0.0 -0.07345686356659005 -0.004670124958198578 0.0 -0.0735160311998736 -0.0040804140185757435 0.0 -0.07160280714559455 -0.004839290741683392 0.0 -0.07039601049075357 -0.003633427988767606 0.0 -0.06753866695801326 -0.0017457011122017953 0.0 -0.06543247895236581 -0.0005547754173830697 0.0 -0.06048296498787262 -0.0002935538301086953 0.0 -0.05682782849413488 -0.000958469070895564 0.0 -0.05357650265977981 -0.00087714059608964 0.0 -0.05155755955812923 -0.0024594999272238988 0.0 -0.0484245716464023 -0.002751854681682782 0.0 -0.04821244296155143 -0.005080842495574459 0.0 -0.047279804815065885 -0.00550191050845598 0.0 -0.046674784245451004 -0.004720969070525231 0.0 -0.047452430871389756 -0.0043706511904161435 0.0 -0.048158399766919234 -0.005374242168913634 0.0 -0.05125031705827043 -0.0053953630149241524 0.0 -0.05414611439685184 -0.0050071851329849945 0.0 -0.05636388646275353 -0.006724280857061724 0.0 -0.058743374162853725 -0.0068797300065280035 0.0 -0.05994277779556741 -0.006190523278020081 0.0 -0.0942457469922936 -0.00510377721986655 0.0 -0.09507478883514754 -0.005107173449439045 0.0 -0.09564804472562301 -0.00546445086906607 0.0 -0.094597796783817 -0.005290632549639624 0.0 -0.09618918952102273 -0.005028386408732121 0.0 -0.09714992025091068 -0.005494348743975857 0.0 -0.09788861156189943 -0.004379483629615145 0.0 -0.09810009578330829 -0.004136809171621135 0.0 -0.09847666158473005 -0.004350041250930933 0.0 -0.09956403307710691 -0.004950893724488068 0.0 -0.09990606364120116 -0.006020140895327193 0.0 -0.10128678624043834 -0.0046246313241046525 0.0 -0.10080899724835149 -0.005973399874473373 0.0 -0.1019751387649926 -0.007730942598403886 0.0 -0.1008498680191262 -0.008907468501469767 0.0 -0.10102615378804239 -0.009618885631513262 0.0 -0.10130244028621357 -0.010468715114157433 0.0 -0.10146006665337073 -0.012015286697459373 0.0 -0.10062229279769941 -0.012632006007263956 0.0 -0.0361141808915079 -0.001376448035125301 0.0 -0.035414800054734456 -0.0019202136071293859 0.0 -0.03716216240055194 -0.0025380969313090647 0.0 -0.037725464853487045 -0.003170646368831047 0.0 -0.03689974195062436 -0.005573884289276975 0.0 -0.03679992993193785 -0.00565807716501054 0.0 -0.0390688335700654 -0.005045687727702662 0.0 -0.038380396668783 -0.006140216186959351 0.0 -0.03783627743446754 -0.005858569162666465 0.0 -0.03780739420463789 -0.0071053835724647 0.0 -0.03674698441888813 -0.007070254534198846 0.0 -0.0382725209120839 -0.0069752666603939365 0.0 -0.038952307451654504 -0.007173733860435216 0.0 -0.03724590960781718 -0.007114201388031208 0.0 -0.03872130570280839 -0.007397952694542284 0.0 -0.03908457158429268 -0.0075394943776896815 0.0 -0.0375128554625603 -0.007759465613552067 0.0 -0.03896981626255312 -0.007032154787923633 0.0 -0.03903036161273448 -0.007175172752795769 0.0 -0.10000115414502357 -0.012253371298237798 0.0 -0.09731941946726638 -0.011780474640153568 0.0 -0.09546045932678146 -0.010729885251280304 0.0 -0.09339873450616551 -0.009266573039220695 0.0 -0.0914634881570084 -0.009371631526622234 0.0 -0.09022212830950611 -0.009128182516312195 0.0 -0.08933099148565174 -0.008710867169335825 0.0 -0.08774906712372559 -0.0077201450483513345 0.0 -0.0871738157968878 -0.007327179848293433 0.0 -0.08648940320262094 -0.006349708329930599 0.0 -0.08506537307110193 -0.005776818014450271 0.0 -0.083511750689022 -0.006664048180718434 0.0 -0.0820323239708451 -0.006624609494935511 0.0 -0.0813173835342649 -0.005643825365866365 0.0 -0.08033900098914903 -0.005900580722228459 0.0 -0.07843326781111336 -0.005567336185970917 0.0 -0.07719359296108178 -0.005289039882529819 0.0 -0.07624837635541266 -0.003796442352597907 0.0 -0.0753379613891361 -0.0031121659502178455 0.0 -0.0729042239116221 -0.0021215151381328663 0.0 -0.07163622588385889 -0.002129442103303863 0.0 -0.0700181480671211 -0.0011256789296153935 0.0 -0.06875816832159325 -0.0013711982687879167 0.0 -0.06680413563029056 -0.0008687346448173672 0.0 -0.0654423346370323 7.948398799664093e-05 0.0 -0.0649571157353698 -0.0003163928188932583 0.0 -0.06510224940974245 -0.0008766331689281663 0.0 -0.06497109600423603 -0.0016625306409158976 0.0 -0.06489357440205995 -0.0023967317223252712 0.0 -0.06528623946387732 -0.0030712575324538726 0.0 -0.0647999348554871 -0.0038310255770251512 0.0 -0.06547312815996276 -0.0026913823690317765 0.0 -0.06609175094470135 -0.0031783426820751514 0.0 -0.06490786367692589 -0.0026428001639668495 0.0 -0.062153269401848135 -0.004022337768855037 0.0 -0.06064188248123076 -0.0024633249616565238 0.0 -0.05921545187361217 -0.003548408421511182 0.0 -0.05730263976457695 -0.004484711284530279 0.0 -0.05602934627217383 -0.0035378695551381845 0.0 -0.05380851596200004 -0.003975185952736277 0.0 -0.05178345745661216 -0.003932269922678594 0.0 -0.05073986404524969 -0.005456545960232275 0.0 -0.0500471394911468 -0.006466534515664441 0.0 -0.046816759496921566 -0.006486827504714665 0.0 -0.04701901929273702 -0.00766723730674152 0.0 -0.04692288341778641 -0.008021969353964944 0.0 -0.04516518379212781 -0.007762244158298097 0.0 -0.046079423433568995 -0.008876295215403888 0.0 -0.044875433874023436 -0.007094214968023375 0.0 -0.043136634289280724 -0.00859344897610876 0.0 -0.04410125855278261 -0.008494190870906077 0.0 -0.04385738740196255 -0.008212397735449345 0.0 -0.044088152848942734 -0.00779655691108278 0.0 -0.04127227798264607 -0.007495049071125804 0.0 -0.04141461261066776 -0.007412686018958517 0.0 -0.041596332654399416 -0.007340504890978188 0.0 -0.04233515985884831 -0.008132671017571313 0.0 -0.04193723775608418 -0.00740703863314416 0.0 -0.04082384784335193 -0.006942226813448659 0.0 -0.09368434212524268 -0.005463869922832474 0.0 -0.09323255446279408 -0.006281507965177467 0.0 -0.09260751925193761 -0.006024259004486871 0.0 -0.09109486683811549 -0.007181930169806205 0.0 -0.09199359851850375 -0.007159916224028423 0.0 -0.09117563880819966 -0.0077727747703240455 0.0 -0.09051531761463982 -0.008662519710957816 0.0 -0.09019110080838992 -0.008981339359896933 0.0 -0.08993591730226148 -0.00938802694584371 0.0 -0.08910269672845948 -0.008510469277335862 0.0 -0.08776347676509953 -0.008129428291627442 0.0 -0.08525149691651694 -0.00888196162778595 0.0 -0.0837689004275776 -0.008538297437087644 0.0 -0.08248531988887248 -0.008029342792846535 0.0 -0.07968910444093796 -0.007029126089067834 0.0 -0.07891511172483184 -0.008306844496570603 0.0 -0.0766979089002201 -0.006686864085957868 0.0 -0.07513638431008517 -0.007332115321399248 0.0 -0.07439042390787153 -0.006981739320076926 0.0 -0.07420426084913018 -0.007540755772321338 0.0 -0.07235847233291345 -0.006953076537053824 0.0 -0.07255694807805753 -0.006733105431333119 0.0 -0.07279498352147425 -0.00624463812830418 0.0 -0.07152168867759759 -0.004770306449211414 0.0 -0.0698724200310961 -0.005274804449034985 0.0 -0.06815850663765541 -0.0037337457906625507 0.0 -0.06679246098726319 -0.003266231149175128 0.0 -0.0654685342811532 -0.0015832430212276095 0.0 -0.06437448967068554 -0.0007624971092482503 0.0 -0.06251166873506986 -0.0017847464218991229 0.0 -0.060070551282748304 -0.0021012936116526775 0.0 -0.058345991392537995 -0.0029375176027854133 0.0 -0.05857948249824976 -0.0025552142412857753 0.0 -0.056624498350915146 -0.001486563092573955 0.0 -0.05536578533964372 -0.002788645788633483 0.0 -0.053212126881164584 -0.0028190264497836353 0.0 -0.051650907926641634 -0.0019293186969659803 0.0 -0.051431560830887096 -0.0017966521486631837 0.0 -0.04919501058126467 -0.0019430430848106084 0.0 -0.04883254890553588 -0.0014256713733117495 0.0 -0.047764390200022336 -0.0012286894301091129 0.0 -0.04598850436483286 -0.00011269528141065876 0.0 -0.04637268224862805 -0.0020773882210068824 0.0 -0.0451657577485619 -0.0010447169023133222 0.0 -0.04387788661764909 -0.0005489713828078923 0.0 -0.04197535421560744 0.00012095472231970347 0.0 -0.041975971318332986 -0.00010795579684223462 0.0 -0.0412039277354382 -0.0004429372471863019 0.0 -0.04105309932468484 -0.000530628477079988 0.0 -0.040767205772167615 3.173966773250093e-05 0.0 -0.040338884760574484 9.074709189895754e-05 0.0 -0.04044855147404767 -0.0005079458346137709 0.0 -0.040051281052415844 -0.0001906396680027162 0.0 -0.03825860185426845 -0.0006981527758096052 0.0 -0.03807882448487386 0.00017950688199271593 0.0 -0.03648993433255327 5.4804654519092515e-05 0.0 -0.036349849420818044 -0.0012007458333818484 0.0 -0.03632437300415629 -0.0005441400992645803 0.0 -0.03673752371784394 0.00038446686334290116 0.0 -0.045476275767067684 -0.006869714968287569 0.0 -0.08073272908829716 -0.004895756331525919 0.0 -0.09236654083375472 -0.0041984140815572385 0.0 -0.04192932671947388 -0.00627406043963761 0.0 -0.0749277410813759 -0.00873734120286036 0.0 -0.04683291353737854 -0.0038836920624977043 0.0 -0.050709629439668176 -0.006259462866806323 0.0 -0.07546754542402478 -0.003726330169242808 0.0 -0.04276638243311109 -0.0066437792249137255 0.0 -0.08495523999964111 -0.005080232763700872 0.0 -0.08095182188366816 -0.007330276197519226 0.0 -0.042453282427398424 -0.003686785285583259 0.0 -0.04238273716373281 -0.0067130146893315526 0.0 -0.09242766449514551 -0.0076976360770427245 0.0 -0.09447983341575052 -0.006140208806053623 0.0 -0.03959502880258148 -0.003747414276251751 0.0 -0.07716789334279538 -0.006011786644732586 0.0 -0.04363022033892522 -0.004770094298173187 0.0 -0.06664142241738175 -0.001782080535427604 0.0 -0.0605347847757402 -0.0026904923387210257 0.0 -0.0709895158662227 -0.005422017870471074 0.0 -0.052654919416956596 -0.003703373142406963 0.0 -0.04730876682635151 -0.0074039238139657565 0.0 -0.07922997921510158 -0.002859891338456625 0.0 -0.089093314895468 -0.008284118321076183 0.0 -0.040196554982828 -0.001910025592462462 0.0 -0.09363828367444857 -0.006021202387801247 0.0 -0.04011886288160857 -0.007033864589995178 0.0 -0.044654689142081684 -0.0026344305539289024 0.0 -0.07759780774382122 -0.007153562619935055 0.0 -0.06304960032680766 -0.002770633116773811 0.0 -0.0637670329679071 -0.0013612008278079072 0.0 -0.08438218271132242 -0.004426281093887898 0.0 -0.04201119478506805 -0.007029269167664702 0.0 -0.07137807833354987 -0.003547078336644456 0.0 -0.05322142219574377 -0.00507300108698197 0.0 -0.04449796976287726 -0.004461544505426444 0.0 -0.07882225615934693 -0.006557558003285809 0.0 -0.08828329403845105 -0.006918243598996337 0.0 -0.042829217422693404 -0.006518817203656096 0.0 -0.07370993799502643 -0.007602917660990898 0.0 -0.047975601907150944 -0.004280107707054269 0.0 -0.0420699323543954 -0.0064082483350045285 0.0 -0.09029888610350818 -0.0063699063604067425 0.0 -0.058484651502456096 -0.0022796749028894153 0.0 -0.07084874028151135 -0.0008553680820441293 0.0 -0.056226328633502826 -0.004958609576302294 0.0 -0.08167454190887559 -0.0051293354708884 0.0 -0.04591834947497363 -0.006203051394928975 0.0 -0.04141977623932834 -0.0067351748473610884 0.0 -0.09600249448629701 -0.009514235922970264 0.0 -0.04678451189615667 -0.004632198551867764 0.0 -0.07553704060116348 -0.0036777070210728 0.0 -0.08240313927013347 -0.004104411658348228 0.0 -0.0447271446930307 -0.007794261299507398 0.0 -0.08348803825146879 -0.008152747776874561 0.0 -0.04243233253720294 -0.0016956444578141194 0.0 -0.07257623459525511 -0.007177480504347863 0.0 -0.05120684252754855 -0.0032541249183450256 0.0 -0.08116936294636086 -0.006524445742166191 0.0 -0.04306978708865012 -0.004865332920731331 0.0 -0.09585835036464734 -0.007682454963512845 0.0 -0.04039329754556331 -0.006653916875025723 0.0 -0.04650476230507979 -0.005620678137459824 0.0 -0.0781371405401771 -0.004396112493978056 0.0 -0.09361433091494453 -0.005701614233772652 0.0 -0.036316769437045565 -0.002343596916079465 0.0 -0.08686295235883959 -0.004738382224847055 0.0 -0.04211312208037192 -0.004897635895983586 0.0 -0.09168554027160809 -0.008110205505308282 0.0 -0.04059890178810063 -0.0009650668742624204 0.0 -0.052538798612315404 -0.004979512732621454 0.0 -0.07373385826217306 -0.0023771014920095992 0.0 -0.03889064397068994 -0.006104975157443517 0.0 -0.09438812188531429 -0.0046733890748920735 0.0 -0.06409856630301491 -0.004853343877820107 0.0 -0.06170681427911228 -0.003801189209410759 0.0 -0.08997228536057192 -0.007382076994896731 0.0 -0.04243568617962191 -0.006219831418699984 0.0 -0.04569672595373459 -0.005576743773588496 0.0 -0.07602388224265584 -0.006596933677501723 0.0 -0.08445849375746717 -0.006012019021790534 0.0 -0.04328934859061095 -0.0069935579216883915 0.0 -0.043903959917542736 -0.001291774004071983 0.0 -0.07791646711865023 -0.007393040460895306 0.0 -0.04697916616778742 -0.002726481534396011 0.0 -0.07512845163574351 -0.0084226686200735 0.0 -0.0933442912712809 -0.006100553335553242 0.0 -0.04139145036686901 -0.0041347399678628525 0.0 -0.06708313492144408 -0.0028316890322581793 0.0 -0.06754984057866519 -0.003544488682586275 0.0 -0.09268148808744918 -0.006168041932601888 0.0 -0.04322236485715786 -0.005865241294620825 0.0 -0.08722353015548294 -0.004196935945736971 0.0 -0.04136093833334826 -0.006931182364037409 0.0 -0.05593524338888159 -0.0027131502084623577 0.0 -0.053781671240620735 -0.003533255722848418 0.0 -0.049654805673640834 -0.007071930414777902 0.0 -0.07723717246874352 -0.002634295982535328 0.0 -0.0448602849549842 -0.0039804061253775995 0.0 -0.07632048942732733 -0.007842646364135055 0.0 -0.06471832674290348 -0.00031467836254943886 0.0 -0.06290193318822043 -0.0020378718543302555 0.0 -0.07112395506193847 -0.005828800020825775 0.0 -0.0773150503109426 -0.0076455500961176105 0.0 -0.04484190206675486 -0.00346937055917555 0.0 -0.04035771397157586 -0.005464697897763079 0.0 -0.09442668128013368 -0.005472359821164724 0.0 -0.0474827076919626 -0.004448872486799577 0.0 -0.07661097699775618 -0.005136142412042433 0.0 -0.06004217397127655 -0.002249839177591276 0.0 -0.048206063783398964 -0.0056298833362237255 0.0 -0.07825581221873101 -0.004248929024959991 0.0 -0.058224416038456406 -0.004526347681623551 0.0 -0.06744678211530838 -0.0035446530602603814 0.0 -0.0797259459205443 -0.007433752199288021 0.0 -0.04384345002031909 -0.0037579658346512937 0.0 -0.08875859188114738 -0.008523505381875135 0.0 -0.04131317708379884 -0.0013361525181942305 0.0 -0.09576881550303201 -0.005468788635917514 0.0 -0.039052026953771364 -0.006726470673906502 0.0 -0.06618836115561945 0.001038959397533528 0.0 -0.06142663151603288 -0.003029897925865413 0.0 -0.07945656463064489 -0.0037998244451605974 0.0 -0.046117524607971284 -0.008406594889165057 0.0 -0.06481972599127603 -0.0008718826828120473 0.0 -0.08497119408242533 -0.007332747721307064 0.0 -0.04155813018754222 -0.002905083353391867 0.0 -0.09336836962102403 -0.007328909287562557 0.0 -0.03809375540211889 -0.001530017545024511 0.0 -0.07938216868575763 -0.006717885642345696 0.0 -0.04453436517701597 -0.0060305108599257055 0.0 -0.09887132217361759 -0.008174601586992514 0.0 -0.041130076651555866 -0.007035790757393989 0.0 -0.0726926649069119 -0.008253989996041095 0.0 -0.049888508006631 -0.00419611656480816 0.0 -0.06965222839790502 -0.0012824515908538483 0.0 -0.05588397813071636 -0.004168728512948637 0.0 -0.037938363521237 -0.0037695194846566775 0.0 -0.09400609471001675 -0.005939850214270233 0.0 -0.045420950568059774 -0.0020619353316629206 0.0 -0.0759123018549127 -0.0067298687916309535 0.0 -0.08294506424435721 -0.004399309293852519 0.0 -0.045021091407959755 -0.007480105030074322 0.0 -0.06973437338867626 -0.005367356683161191 0.0 -0.06291246118953657 -0.005770191220649806 0.0 -0.042567862344751274 -0.00740717586500232 0.0 -0.08536422131142668 -0.004888592264123559 0.0 -0.042027603052960535 -0.0054087424464965665 0.0 -0.0933363792413733 -0.007778826640343198 0.0 -0.09002868317198384 -0.00638971186500746 0.0 -0.04106865236644746 -0.004351674034336239 0.0 -0.04143380309886803 -0.0073288524889588745 0.0 -0.08713066789295089 -0.0055139651486296815 0.0 -0.09023068070401352 -0.007169548214598356 0.0 -0.04283563627406978 -0.005805783093870625 0.0 -0.04301620261226752 -0.005141409348428224 0.0 -0.0827297076247047 -0.005870808380187226 0.0 -0.05419544807193177 -0.0032403662144547657 0.0 -0.08790142102958826 -0.00716777955432745 0.0 -0.04242249946986086 -0.00794320680567545 0.0 -0.07300237761336752 -0.0013977305589945492 0.0 -0.05292296316248119 -0.006621582500897528 0.0 -0.07452214507032871 -0.004460234939973928 0.0 -0.049591365061719204 -0.00513407619710078 0.0 -0.07229091735727368 -0.004277730476250737 0.0 -0.05049347639689343 -0.004100965807166406 0.0 -0.04100723536103666 -0.006663883840991455 0.0 -0.09872281519462575 -0.011718575929695007 0.0 -0.07665190067240571 -0.007096737167387125 0.0 -0.045260258730475574 -0.003911825576564268 0.0 -0.07508788392026593 -0.002849657111408743 0.0 -0.05161061153082626 -0.005289693279456059 0.0 -0.07425298704787757 -0.00668458327493608 0.0 -0.04640545211685359 -0.004169446576125517 0.0 -0.08648473417730579 -0.006531524510058783 0.0 -0.04359726066911123 -0.006847265865791102 0.0 -0.09149850137780155 -0.009010407876443567 0.0 -0.04168803664547128 -0.007208873575108239 0.0 -0.04473726832398893 -0.005338797769464385 0.0 -0.0807176465103592 -0.006371337595721264 0.0 -0.08242664612718227 -0.005465550719189871 0.0 -0.045285126621655035 -0.0070536833905741145 0.0 -0.07125223528180491 -0.0011440075703594886 0.0 -0.05743422181832272 -0.003925816884784155 0.0 -0.04605217905118927 -0.0067911101398070205 0.0 -0.08094663359829002 -0.003961762644052473 0.0 -0.04341163536448658 -0.007266961273349597 0.0 -0.08308588982966204 -0.004453062620357186 0.0 -0.08696749656797716 -0.0056648937736755375 0.0 -0.04252228918655863 -0.007236732312378046 0.0 -0.044895963262829144 -0.003938982895725426 0.0 -0.07853510607369023 -0.007460143481316672 0.0 -0.0651681768024759 -0.002199210459338713 0.0 -0.042034521000423465 -0.006909180389381393 0.0 -0.09437908459096431 -0.008490378652382577 0.0 -0.07391416334963054 -0.008196604155796533 0.0 -0.04803108400328188 -0.0039601188836511335 0.0 -0.09409687688943769 -0.003602551181885343 0.0 -0.042662091626816515 -0.005848341376670171 0.0 -0.09010800165519546 -0.009178508535123092 0.0 -0.04008832211475177 -0.0015689111211336353 0.0 -0.06392712494581067 -0.001944301918028165 0.0 -0.045239334751383926 -0.004331572480433169 0.0 -0.07611139723073118 -0.005548592583981062 0.0 -0.08014085402844304 -0.007645960723298046 0.0 -0.0428953591285181 -0.001956751813573877 0.0 -0.0497763331397864 -0.004461773794051245 0.0 -0.04307992755700943 -0.005969883506732158 0.0 -0.09177177243320461 -0.006549545614874108 0.0 -0.04280171351357326 -0.0022874297002103473 0.0 -0.08135393218667906 -0.008135727293121184 0.0 -0.03773563287414017 -0.005915373909773757 0.0 -0.09554891649479491 -0.005948474352530331 0.0 -0.05634747977755798 -0.0021082233318640954 0.0 -0.04272454726987434 -0.0066282053042978715 0.0 -0.09212554003656039 -0.005121920551782018 0.0 -0.09135095411854889 -0.008007130526842269 0.0 -0.04166162548379949 -0.0021890886427207512 0.0 -0.04953704363696069 -0.001942726420068489 0.0 -0.07288889668914342 -0.00711686991947022 0.0 -0.09361409850886061 -0.0057435810623351746 0.0 -0.037086356446343595 -0.0015828751544344041 0.0 -0.05267987518623872 -0.004722792801682585 0.0 -0.07201345725639184 -0.0031129109697487067 0.0 -0.06084293766975408 -0.0017385779036433668 0.0 -0.050948911263570325 -0.004292350257777605 0.0 -0.07799674743103756 -0.006807705061889112 0.0 -0.043900965729034874 -0.00519005176290