<?xml version="1.0" ?>
<VTKFile byte_order="LittleEndian" type="UnstructuredGrid" version="0.1">
<UnstructuredGrid>
<Piece NumberOfCells="3478" NumberOfPoints="1836">
<Points>
<DataArray NumberOfComponents="3" format="ascii" type="Float32">0.0 0.0 0.0 0.0 30.0 0.0 90.0 0.0 0.0 90.0 30.0 0.0 45.0 14.7 0.0 45.0 19.7 0.0 45.0 9.7 0.0 44.0245483899222 19.60392640201672 0.0 43.08658283818048 19.31939766255888 0.0 42.22214883490896 18.85734806151738 0.0 41.46446609407355 18.23553390593903 0.0 40.84265193849559 17.47785116511045 0.0 40.38060233744971 16.61341716184027 0.0 40.09607359798762 15.67545161009959 0.0 40.0 14.7000000000206 0.0 40.09607359798068 13.72454838993527 0.0 40.38060233743827 12.78658283818735 0.0 40.84265193848201 11.92214883490987 0.0 41.46446609406021 11.16446609407431 0.0 42.22214883489495 10.54265193849198 0.0 43.08658283817165 10.08060233744477 0.0 44.02454838991945 9.79607359798383 0.0 45.97545161007786 9.796073597983295 0.0 46.91341716181914 10.08060233744095 0.0 47.77785116509095 10.54265193848255 0.0 48.53553390592572 11.16446609406025 0.0 49.15734806150372 11.92214883488851 0.0 49.61939766255018 12.78658283815946 0.0 49.90392640201246 13.72454838990077 0.0 50.0 14.69999999997977 0.0 49.90392640201924 15.67545161006509 0.0 49.6193976625616 16.61341716181298 0.0 49.15734806151947 17.47785116508791 0.0 48.53553390594058 18.23553390592489 0.0 47.77785116510518 18.85734806150794 0.0 46.91341716182851 19.31939766255517 0.0 45.97545161008048 19.60392640201618 0.0 0.0 1.499999999999333 0.0 0.0 2.999999999999543 0.0 0.0 4.499999999999284 0.0 0.0 5.999999999997914 0.0 0.0 7.499999999996543 0.0 0.0 8.999999999992466 0.0 0.0 10.49999999998665 0.0 0.0 11.99999999998084 0.0 0.0 13.49999999997503 0.0 0.0 14.99999999996956 0.0 0.0 16.49999999997229 0.0 0.0 17.99999999997536 0.0 0.0 19.49999999997843 0.0 0.0 20.9999999999815 0.0 0.0 22.49999999998457 0.0 0.0 23.99999999998764 0.0 0.0 25.49999999999073 0.0 0.0 26.99999999999382 0.0 0.0 28.49999999999692 0.0 90.0 1.499999999999333 0.0 90.0 2.999999999999543 0.0 90.0 4.499999999999284 0.0 90.0 5.999999999997914 0.0 90.0 7.499999999996543 0.0 90.0 8.999999999992466 0.0 90.0 10.49999999998665 0.0 90.0 11.99999999998084 0.0 90.0 13.49999999997503 0.0 90.0 14.99999999996956 0.0 90.0 16.49999999997229 0.0 90.0 17.99999999997536 0.0 90.0 19.49999999997843 0.0 90.0 20.9999999999815 0.0 90.0 22.49999999998457 0.0 90.0 23.99999999998764 0.0 90.0 25.49999999999073 0.0 90.0 26.99999999999382 0.0 90.0 28.49999999999692 0.0 1.499999999999597 30.0 0.0 2.999999999999036 30.0 0.0 4.499999999998088 30.0 0.0 5.999999999997163 30.0 0.0 7.499999999997185 30.0 0.0 8.999999999997288 30.0 0.0 10.49999999999739 30.0 0.0 11.99999999999602 30.0 0.0 13.49999999999316 30.0 0.0 14.9999999999903 30.0 0.0 16.49999999998744 30.0 0.0 17.99999999998458 30.0 0.0 19.49999999998172 30.0 0.0 20.99999999997887 30.0 0.0 22.49999999997601 30.0 0.0 23.99999999997315 30.0 0.0 25.4999999999703 30.0 0.0 26.99999999996745 30.0 0.0 28.49999999996459 30.0 0.0 29.99999999996174 30.0 0.0 31.49999999995888 30.0 0.0 32.99999999995603 30.0 0.0 34.49999999995318 30.0 0.0 35.99999999995033 30.0 0.0 37.49999999994748 30.0 0.0 38.99999999994462 30.0 0.0 40.49999999994177 30.0 0.0 41.99999999993892 30.0 0.0 43.49999999993607 30.0 0.0 44.99999999993459 30.0 0.0 46.49999999994219 30.0 0.0 47.99999999995118 30.0 0.0 49.49999999996015 30.0 0.0 50.99999999996914 30.0 0.0 52.49999999997812 30.0 0.0 53.99999999998711 30.0 0.0 55.49999999999608 30.0 0.0 57.00000000000507 30.0 0.0 58.50000000001404 30.0 0.0 60.00000000002303 30.0 0.0 61.500000000032 30.0 0.0 63.00000000004099 30.0 0.0 64.50000000004795 30.0 0.0 66.00000000004582 30.0 0.0 67.50000000004296 30.0 0.0 69.00000000004009 30.0 0.0 70.50000000003723 30.0 0.0 72.00000000003436 30.0 0.0 73.5000000000315 30.0 0.0 75.00000000002863 30.0 0.0 76.50000000002578 30.0 0.0 78.00000000002291 30.0 0.0 79.50000000002005 30.0 0.0 81.0000000000172 30.0 0.0 82.50000000001431 30.0 0.0 84.00000000001147 30.0 0.0 85.50000000000858 30.0 0.0 87.00000000000573 30.0 0.0 88.50000000000286 30.0 0.0 1.499999999999597 0.0 0.0 2.999999999999036 0.0 0.0 4.499999999998088 0.0 0.0 5.999999999997163 0.0 0.0 7.499999999997185 0.0 0.0 8.999999999997288 0.0 0.0 10.49999999999739 0.0 0.0 11.99999999999602 0.0 0.0 13.49999999999316 0.0 0.0 14.9999999999903 0.0 0.0 16.49999999998744 0.0 0.0 17.99999999998458 0.0 0.0 19.49999999998172 0.0 0.0 20.99999999997887 0.0 0.0 22.49999999997601 0.0 0.0 23.99999999997315 0.0 0.0 25.4999999999703 0.0 0.0 26.99999999996745 0.0 0.0 28.49999999996459 0.0 0.0 29.99999999996174 0.0 0.0 31.49999999995888 0.0 0.0 32.99999999995603 0.0 0.0 34.49999999995318 0.0 0.0 35.99999999995033 0.0 0.0 37.49999999994748 0.0 0.0 38.99999999994462 0.0 0.0 40.49999999994177 0.0 0.0 41.99999999993892 0.0 0.0 43.49999999993607 0.0 0.0 44.99999999993459 0.0 0.0 46.49999999994219 0.0 0.0 47.99999999995118 0.0 0.0 49.49999999996015 0.0 0.0 50.99999999996914 0.0 0.0 52.49999999997812 0.0 0.0 53.99999999998711 0.0 0.0 55.49999999999608 0.0 0.0 57.00000000000507 0.0 0.0 58.50000000001404 0.0 0.0 60.00000000002303 0.0 0.0 61.500000000032 0.0 0.0 63.00000000004099 0.0 0.0 64.50000000004795 0.0 0.0 66.00000000004582 0.0 0.0 67.50000000004296 0.0 0.0 69.00000000004009 0.0 0.0 70.50000000003723 0.0 0.0 72.00000000003436 0.0 0.0 73.5000000000315 0.0 0.0 75.00000000002863 0.0 0.0 76.50000000002578 0.0 0.0 78.00000000002291 0.0 0.0 79.50000000002005 0.0 0.0 81.0000000000172 0.0 0.0 82.50000000001431 0.0 0.0 84.00000000001147 0.0 0.0 85.50000000000858 0.0 0.0 87.00000000000573 0.0 0.0 88.50000000000286 0.0 0.0 63.37364706550937 16.50964628420433 0.0 26.62635293463404 16.50964628433121 0.0 13.41978650690528 13.45950154969383 0.0 76.58021349318176 13.45950154962137 0.0 33.45476071497805 8.290175608698323 0.0 56.54523928495111 8.290175608661723 0.0 56.52897059443286 20.86236316873536 0.0 33.47102940567571 20.86236316876138 0.0 71.2830521058756 21.04460405596809 0.0 18.71694789423233 21.04460405599743 0.0 21.41980901986561 9.070463267320616 0.0 68.58019098027053 9.07046326726413 0.0 80.99914552692991 20.97721309723637 0.0 9.000854473061795 20.97721309727302 0.0 7.870305877421703 8.018059563575596 0.0 82.12969412262107 8.018059563525435 0.0 33.7165245411982 14.65399207417489 0.0 56.28347545881759 14.65399207414136 0.0 39.97305498366637 24.34223222603792 0.0 50.02694501636432 24.34223222603521 0.0 38.06318796926433 6.581870986627434 0.0 51.65683578806563 6.660577520338367 0.0 62.64972062822329 23.28495574336215 0.0 27.35027937196879 23.28495574342431 0.0 14.97502445613706 6.824785268959483 0.0 75.02497554396214 6.824785268919009 0.0 6.787494920844402 14.64311087002373 0.0 83.2125050791834 14.64311087005626 0.0 62.74377049329286 6.199343823534628 0.0 27.25622950671565 6.19934382349436 0.0 45.000000000016 24.81766533538266 0.0 43.95657580818752 4.66610370877416 0.0 20.65769446566512 15.12449163383865 0.0 69.34230553450763 15.12449163379761 0.0 37.96200801440695 20.41720228097835 0.0 52.03799198563937 20.41720228095547 0.0 60.84525610777352 11.56302347148087 0.0 29.15474389221305 11.56302347157453 0.0 13.9479594477568 24.07830472189175 0.0 76.05204055230455 24.07830472189373 0.0 37.10725181280449 10.48234091456723 0.0 52.87039497378214 10.64738567442688 0.0 76.13945330379045 19.16176902849947 0.0 13.86054669631562 19.16176902853507 0.0 47.5363758303687 6.338689435416557 0.0 34.86428980814253 25.34552342098224 0.0 55.13571019192649 25.34552342097093 0.0 22.30941555412428 24.72828550626092 0.0 67.69058444605145 24.72828550626487 0.0 84.713423002924 24.99937419725806 0.0 5.286576997074654 24.99937419725982 0.0 53.00114321705956 17.18011225714096 0.0 36.99885678297024 17.18011225718971 0.0 23.5598838532369 20.42784805271946 0.0 66.44011614689009 20.42784805259263 0.0 19.30012895581989 4.590769543361563 0.0 70.69987104427214 4.590769543316364 0.0 34.65194187852933 4.323942427443631 0.0 55.3509190897658 4.276953815657579 0.0 24.56326495034983 12.51090819943921 0.0 65.43673504967131 12.51090819926273 0.0 4.675281458987522 18.75593683549119 0.0 85.32471854101604 18.75593683552496 0.0 59.27549643767956 17.55657731658075 0.0 30.72450356243039 17.55657731666243 0.0 4.48422503831524 4.681086215913009 0.0 85.51577496171463 4.681086215890073 0.0 17.49653004164637 11.94727187727593 0.0 72.50346995845473 11.94727187724224 0.0 10.98527091569449 4.578615553731414 0.0 79.0147290843752 4.578615553705176 0.0 58.91405463068145 25.62404760730938 0.0 31.08594536941772 25.6240476073746 0.0 85.5241378133564 10.79876961335222 0.0 4.475862186642179 10.79876961333991 0.0 42.66656627406208 22.55964308489288 0.0 47.33343372595118 22.55964308489816 0.0 9.583286029275847 25.4002693669458 0.0 80.41671397074799 25.40026936696242 0.0 53.06845121340182 13.81856388174299 0.0 36.93154878659712 13.81856388180116 0.0 17.8174374277252 25.57763591150952 0.0 72.18256257238082 25.5776359115521 0.0 66.48712173895905 4.220888897947975 0.0 23.51287826110802 4.220888897905488 0.0 59.31833062037198 4.22591876993067 0.0 30.68166937960341 4.225918769883755 0.0 11.77463693523386 9.605550025953741 0.0 78.22536306483727 9.60555002590434 0.0 41.61323298424063 7.118443406710728 0.0 40.49821449791196 3.657232821442271 0.0 10.5266603073137 16.32186666614573 0.0 79.47333969271385 16.32186666603704 0.0 16.67405390020416 15.97604740026929 0.0 73.32594609994788 15.97604740025251 0.0 49.78436784633756 3.517636631289772 0.0 49.88839936442268 8.765969189103764 0.0 60.0639438556624 21.0617009560476 0.0 29.93605614447742 21.06170095609978 0.0 55.93957776705275 11.46129603095351 0.0 34.06042223290302 11.46129603098422 0.0 42.080133866937 26.6941411693382 0.0 47.61442067123723 26.51556330917287 0.0 39.44356817596738 9.167540042382463 0.0 29.86186672815856 8.62859477986549 0.0 60.13813327177503 8.62859477979463 0.0 81.60488436417148 11.7395599460253 0.0 8.395115635915154 11.73955994604578 0.0 56.13971841765213 17.80631872018535 0.0 33.86028158239547 17.80631872019029 0.0 46.635920
[...]
<PointData>
<DataArray Name="displ" NumberOfComponents="3" format="ascii" type="Float32">-0.8993642740112385 -0.05037368916869902 0.0 -0.9098544284610877 -0.0836927466944583 0.0 -0.35445272375416303 0.003514370562237537 0.0 -0.37508351430359893 -0.025317447975213514 0.0 -0.8518131365000238 -0.055855883379781444 0.0 -0.6361115963545599 -0.08413700943723651 0.0 -0.6302205346604114 0.0025781601320919293 0.0 -0.6545004004771775 -0.08248974579357238 0.0 -0.678634847957775 -0.08275120520313187 0.0 -0.7027926649450723 -0.07634327875096075 0.0 -0.719591402011179 -0.07088839178742475 0.0 -0.7386137192195525 -0.0657003939691838 0.0 -0.7514838985935502 -0.06088647990032491 0.0 -0.7576299127551458 -0.05418624114490994 0.0 -0.7594610086549616 -0.0484456195732535 0.0 -0.7563932572193895 -0.04427561318170962 0.0 -0.7493649207581259 -0.03669974164171578 0.0 -0.7378587883701959 -0.02828794223915384 0.0 -0.7233512116968503 -0.02189895694550613 0.0 -0.7013563309684442 -0.014948679452497319 0.0 -0.6796567431102688 -0.007255773832485559 0.0 -0.656506628654783 -0.0009290040279751663 0.0 -0.605508118380327 -0.003144623718379398 0.0 -0.5800791390421489 -0.005600734570127666 0.0 -0.557968940812105 -0.008666211996671181 0.0 -0.5402044743582481 -0.012925130972163525 0.0 -0.5248075547650838 -0.020508088793798274 0.0 -0.515012584206121 -0.028421701068104443 0.0 -0.5095561779316873 -0.03393969321299653 0.0 -0.5073600431065706 -0.03921651447086041 0.0 -0.5093659848363506 -0.04486879257123664 0.0 -0.5154346364947829 -0.05249917163075799 0.0 -0.5277652287978903 -0.05894260684789995 0.0 -0.5465977817621565 -0.06609265631188542 0.0 -0.5644579225936831 -0.07589668227787896 0.0 -0.5913319930921858 -0.07918834446702126 0.0 -0.6134184959611259 -0.08294994064023659 0.0 -0.9006051499077533 -0.0498963115848985 0.0 -0.9036037036446021 -0.05078456321701873 0.0 -0.9043175530206058 -0.052540138757002565 0.0 -0.9051553022056267 -0.052978522444137095 0.0 -0.9070660819972937 -0.0533766892775694 0.0 -0.9087114808171112 -0.05450780896876325 0.0 -0.9090586285818733 -0.05720422946030149 0.0 -0.9093559329439683 -0.058731454413580415 0.0 -0.9107632349886767 -0.06137291746694633 0.0 -0.9096617542549177 -0.06413661763979311 0.0 -0.9110136755978805 -0.0676451736233636 0.0 -0.9107070401422588 -0.06957793232752152 0.0 -0.9108389663181506 -0.07185412471781988 0.0 -0.9114641339941901 -0.07414523354256469 0.0 -0.9129143293854686 -0.07534970622955837 0.0 -0.9108892167346081 -0.07874140629260849 0.0 -0.9114848285890972 -0.08058202557450528 0.0 -0.910791240349099 -0.08016241626386554 0.0 -0.9100330564584587 -0.08197408451452957 0.0 -0.3572362436319979 0.0029766984489862586 0.0 -0.3569528030377148 -0.000703290777496345 0.0 -0.35922630022793367 -0.0027087482505912404 0.0 -0.3622375650627569 -0.004335921883998227 0.0 -0.36294504234440433 -0.00619034182718198 0.0 -0.36186280845698077 -0.009110883109941268 0.0 -0.36202530417894624 -0.010646067376678392 0.0 -0.3626309793241564 -0.01329442944139374 0.0 -0.36396907982127663 -0.014438564168173728 0.0 -0.3650761784048524 -0.017028415570514554 0.0 -0.36414427701906066 -0.01747363145804864 0.0 -0.367820758533515 -0.02019838296832911 0.0 -0.3682025852069957 -0.020310924743205665 0.0 -0.36897782423187986 -0.02072396687000504 0.0 -0.3706775885596113 -0.02192253528632479 0.0 -0.3735840417637428 -0.02265884278168689 0.0 -0.37351170400860356 -0.02189950682297174 0.0 -0.37625663815555316 -0.022241277524796575 0.0 -0.3751218227200554 -0.024058984986612228 0.0 -0.9060698707446021 -0.08295941572692599 0.0 -0.8984850011616128 -0.08192410350518185 0.0 -0.889352028932636 -0.07989989039202676 0.0 -0.8813928874145376 -0.07932646528301969 0.0 -0.8720261359421749 -0.07804773353069244 0.0 -0.8629802340285134 -0.07622469924942264 0.0 -0.8549525359378827 -0.07540796216851005 0.0 -0.8462585792053737 -0.07413125746487549 0.0 -0.8383210483631696 -0.07326362653350743 0.0 -0.82943264553063 -0.07074544854358096 0.0 -0.82102303252865 -0.07097100886216708 0.0 -0.8125521273141306 -0.07058326443073717 0.0 -0.8015448162574297 -0.07019871225788925 0.0 -0.7918262466916847 -0.07060307225065561 0.0 -0.782225893377919 -0.06969997757574464 0.0 -0.7730485917118877 -0.06854871207526586 0.0 -0.7637498982603382 -0.06852698040634352 0.0 -0.7547704273522611 -0.06845274082668018 0.0 -0.7459744846054064 -0.0683306240821475 0.0 -0.7356399716460532 -0.06738163451014065 0.0 -0.7269749889617969 -0.06774548303031759 0.0 -0.7164962249660243 -0.0686633852548416 0.0 -0.7072700351004627 -0.07106771925991105 0.0 -0.6966258232598503 -0.07086289830445792 0.0 -0.6862704169023431 -0.07279520787283372 0.0 -0.6750742039529317 -0.07778658955219325 0.0 -0.6666135070069178 -0.08273745361963654 0.0 -0.6579020974645857 -0.08750314511395628 0.0 -0.6503359915533612 -0.09054181666138737 0.0 -0.6427673317904048 -0.09025014195139738 0.0 -0.6331137103318762 -0.08835685313553637 0.0 -0.6265111203054889 -0.08326424481073529 0.0 -0.619594984134434 -0.0770309847776835 0.0 -0.6126229813848515 -0.07013181630966163 0.0 -0.6045502649822614 -0.0650739412130143 0.0 -0.5930969812906549 -0.06019897218336454 0.0 -0.581647991102344 -0.056844857441292154 0.0 -0.5714352574282573 -0.051985836940037895 0.0 -0.5607427998561462 -0.049431146973287154 0.0 -0.5472430220576503 -0.04654231636735571 0.0 -0.5358717529216326 -0.04229100992390196 0.0 -0.5253029736225514 -0.04310803421385843 0.0 -0.5172141970257242 -0.04249317684645987 0.0 -0.5057170229252249 -0.0421800916071883 0.0 -0.49639559011530326 -0.042527000254700596 0.0 -0.48884351055506525 -0.04096174066495262 0.0 -0.4783962253525186 -0.04043024232975975 0.0 -0.47228595708518356 -0.040084640111410434 0.0 -0.46353122820180254 -0.03581030913099425 0.0 -0.4559537105998425 -0.036304283143706984 0.0 -0.4484451873200195 -0.03277798199924641 0.0 -0.4397636554561912 -0.030878001264107193 0.0 -0.4326163929366303 -0.03070391605754278 0.0 -0.42219418441894363 -0.027913590483633455 0.0 -0.41406002675895004 -0.025871718243350935 0.0 -0.40564446165331197 -0.02707167120132806 0.0 -0.398769714868236 -0.027889721163128857 0.0 -0.39038813145026996 -0.025133903124870165 0.0 -0.38237282706288955 -0.024394103156225342 0.0 -0.8938240769728278 -0.04866324588783303 0.0 -0.8863582949778676 -0.05028570629674607 0.0 -0.8774308949785002 -0.048715480573237165 0.0 -0.8685213101132806 -0.051017375539075656 0.0 -0.8613322785095083 -0.05140161969933681 0.0 -0.8529472065764782 -0.05201875847346135 0.0 -0.8454659615539283 -0.052049846116151405 0.0 -0.8375513453059314 -0.05199264453848709 0.0 -0.8294379570512954 -0.05241151815800683 0.0 -0.8198507381004102 -0.051673762697835635 0.0 -0.8105795794176354 -0.04923717332845536 0.0 -0.8005256757952304 -0.04909493404220836 0.0 -0.7903107019294027 -0.04886599733349752 0.0 -0.7820785071137967 -0.04826828099308053 0.0 -0.7725135617276001 -0.04639342671338174 0.0 -0.7629422784816444 -0.04621980635086956 0.0 -0.7541009863628585 -0.0443362560553408 0.0 -0.7446394135793891 -0.04376680628939631 0.0 -0.7356295429978992 -0.04400732329626689 0.0 -0.7260553498086857 -0.041084092898625815 0.0 -0.714824716535055 -0.041078414693914496 0.0 -0.7036397921674699 -0.038054689486337896 0.0 -0.6920739804048782 -0.036253982151184375 0.0 -0.6815443176129209 -0.0312307668698523 0.0 -0.670759965730029 -0.02632323464479105 0.0 -0.6581321141130482 -0.020149282791899217 0.0 -0.6491698255446223 -0.01127941753342597 0.0 -0.640422207960413 -0.002040008517323339 0.0 -0.6321198902469805 0.0022298842911501727 0.0 -0.6255216013129107 0.006696030946183814 0.0 -0.6184341064008131 0.006494210137032277 0.0 -0.61112967768477 0.0033416329423091935 0.0 -0.6018977715251427 0.0003818113377234144 0.0 -0.5933557048448581 -0.00551151548354893 0.0 -0.5829666947044301 -0.010463404783805771 0.0 -0.571875803556521 -0.013742306209175551 0.0 -0.5600264158332698 -0.01527665098726263 0.0 -0.5491039898573514 -0.016198661994039982 0.0 -0.5373722702757772 -0.016779905985107892 0.0 -0.527053326607597 -0.016153683307740477 0.0 -0.5155956530338721 -0.01709775660535898 0.0 -0.5049119406171391 -0.014144861469395227 0.0 -0.4946966962717431 -0.014882366782529034 0.0 -0.48729261422949155 -0.014536542980568948 0.0 -0.4769633034248762 -0.012759425810561525 0.0 -0.4661754955140848 -0.010592456270688472 0.0 -0.45878198445821783 -0.010023295043117296 0.0 -0.44993457054568436 -0.008778988237154665 0.0 -0.4403311770864555 -0.006397283638348934 0.0 -0.4321138963829856 -0.006071321618570282 0.0 -0.4238087127721023 -0.005428574128411523 0.0 -0.41411538571572115 -0.004564212487000047 0.0 -0.40733400961687855 -0.002418714530615236 0.0 -0.3990711982414597 -0.002522208845770731 0.0 -0.3920003241183611 -0.0014947926055366696 0.0 -0.3825146949981179 0.0011069506846265343 0.0 -0.3752794048333124 0.0023572786998856377 0.0 -0.3687066708077896 0.001807439201994782 0.0 -0.3605581719120339 0.004541828798854703 0.0 -0.4866130888248344 -0.031091921978452206 0.0 -0.7809678761817235 -0.05583957230866643 0.0 -0.8428824597331989 -0.06146876566297342 0.0 -0.4253807859842006 -0.021696156919961542 0.0 -0.7293134683762101 -0.04928535611031774 0.0 -0.5336305635389129 -0.029395887250822712 0.0 -0.5427022202297755 -0.040398067640270714 0.0 -0.735646905585623 -0.05619093579505982 0.0 -0.463099838356694 -0.027430773186048925 0.0 -0.8093993617192256 -0.06269730764457376 0.0 -0.7927918866827988 -0.05498329316142742 0.0 -0.46597423183077374 -0.0227540920329532 0.0 -0.4122898883851727 -0.024310281386963135 0.0 -0.8676984807280573 -0.06815152072864772 0.0 -0.8675645313996524 -0.05700236615768326 0.0 -0.3958355540682994 -0.011711576370128684 0.0 -0.7630351881590892 -0.05133837815266927 0.0 -0.5053935060304283 -0.03370258360898647 0.0 -0.6757370016964582 -0.07378881946764926 0.0 -0.6026184449615742 -0.06652023943288111 0.0 -0.684961164970495 -0.03308929607491659 0.0 -0.5765819545479759 -0.019420443569904786 0.0 -0.5138922664950671 -0.03741235122970638 0.0 -0.7595939861918445 -0.05878815544915525 0.0 -0.8264773726748729 -0.055463356315560174 0.0 -0.4334376259366564 -0.014945877481541074 0.0 -0.8800045374606845 -0.06452220298007245 0.0 -0.39375657528794805 -0.01965327134449677 0.0 -0.5029414683211935 -0.02407103295510588 0.0 -0.7555794309780076 -0.050124817585903515 0.0 -0.6381384433028334 -0.08457206962357569 0.0 -0.633704263983716 -0.0008689372454468898 0.0 -0.8056169535219195 -0.0580392384210237 0.0 -0.4610804298307936 -0.02635175435026208 0.0 -0.7111782137537436 -0.05895046314593092 0.0 -0.5650167169359748 -0.04896518216506986 0.0 -0.494732664079202 -0.03004865782402459 0.0 -0.7688598564388139 -0.05225776261525812 0.0 -0.8360682926875115 -0.06742734834429195 0.0 -0.44473116678270264 -0.026185563499992053 0.0 -0.7314888464362291 -0.04523278918398608 0.0 -0.5319024284050106 -0.031476049809615526 0.0 -0.4347389695124505 -0.025266098332762096 0.0 -0.8396046236388489 -0.06482496587436465 0.0 -0.6077821334584217 -0.0015309242421952189 0.0 -0.7102684773497451 -0.06328936110050888 0.0 -0.5743431673771096 -0.050289080765125053 0.0 -0.7854777762582074 -0.06465498497164415 0.0 -0.489348614500023 -0.03362527506417709 0.0 -0.3981006788206665 -0.023959267142227594 0.0 -0.8870757072676263 -0.0755681642040555 0.0 -0.5213857777986373 -0.040081307597105376 0.0 -0.7518913685031191 -0.052019850947647946 0.0 -0.7856531584018019 -0.05966299156567848 0.0 -0.4854874531612721 -0.03170059420289174 0.0 -0.7957241060759386 -0.05336163446720126 0.0 -0.4585150794766394 -0.01481779323712045 0.0 -0.7013743872596063 -0.04079029760560106 0.0 -0.5571026857655972 -0.021508572983778396 0.0 -0.7864888837947707 -0.05597326453786743 0.0 -0.47618662834424025 -0.02718237311937937 0.0 -0.8927680282502964 -0.06863414307787837 0.0 -0.38882567943240315 -0.021665562262443164 0.0 -0.5038306476391016 -0.03408651234915952 0.0 -0.7648214617699786 -0.05312187938294031 0.0 -0.8809926469128543 -0.052257420704493004 0.0 -0.3775483596851517 -0.005115506427476782 0.0 -0.8186725426356605 -0.05800384102451286 0.0 -0.44532145930546396 -0.02153632512685635 0.0 -0.8461705362716638 -0.05474327620009807 0.0 -0.41219595583575097 -0.008522593938758363 0.0 -0.54685377203882 -0.04382776575829852 0.0 -0.7335971255052467 -0.062302890420206015 0.0 -0.38030286535286645 -0.014031004003496163 0.0 -0.8900003081319537 -0.05813631667193782 0.0 -0.6573696806982992 -0.0822883907145375 0.0 -0.6172295507962912 -0.07889866825757613 0.0 -0.8614312366192607 -0.07095318264308971 0.0 -0.42188840170620556 -0.025085515658013598 0.0 -0.5110339374460486 -0.035904770004328845 0.0 -0.7586876936130534 -0.04915102714578781 0.0 -0.8110480683700972 -0.06775560478130713 0.0 -0.46745200719430213 -0.030595278645713268 0.0 -0.48311994139959263 -0.018673499763323633 0.0 -0.7700659119704545 -0.05110003617785437 0.0 -0.5287667887741585 -0.022801816914982162 0.0 -0.7281820997624938 -0.0462106753408516 0.0 -0.8480539521610269 -0.05896623642253966 0.0 -0.41642168097015764 -0.01678477581434704 0.0 -0.6581509076475601 -0.012974147282794979 0.0 -0.6569857753581969 -0.015201285830762818 0.0 -0.8600681156124016 -0.06349314638509135 0.0 -0.4140576029675628 -0.022248281732658276 0.0 -0.8237505558073496 -0.06018404043804618 0.0 -0.44281064299288786 -0.025585629900070118 0.0 -0.5965141854420986 -0.005925633805510978 0.0 -0.5740994368422635 -0.01721823960549025 0.0 -0.5208165399811425 -0.03630894186531187 0.0 -0.7534053660255675 -0.055265598072700435 0.0 -0.5138947789428163 -0.032896194832633376 0.0 -0.7513438337976818 -0.04974719537608765 0.0 -0.6588231592863879 -0.08353509449664243 0.0 -0.6225319189440833 -0.08040894547841894 0.0 -0.6975275038701143 -0.03323529859616935 0.0 -0.7515331297366339 -0.05209686976281161 0.0 -0.5088992663165205 -0.028681353035436893 0.0 -0.4001788312228999 -0.016399752015628072 0.0 -0.8685331999515233 -0.06108002276713241 0.0 -0.5199935784721799 -0.0359553458749598 0.0 -0.7545426915406537 -0.05247406335690817 0.0 -0.6150526320251308 0.0030679715224823973 0.0 -0.5125480320335776 -0.038833996112163524 0.0 -0.7628525814909716 -0.06466656815108256 0.0 -0.5877960531399051 -0.06533394404138981 0.0 -0.683985223539544 -0.07035242217693757 0.0 -0.7756908683257637 -0.054996773878502006 0.0 -0.48302763732737203 -0.02431662613507326 0.0 -0.8148743907323669 -0.05458865174634353 0.0 -0.44052248843712083 -0.011262316639226732 0.0 -0.8987435110472303 -0.0643961161013225 0.0 -0.37884454317338895 -0.018309240050622 0.0 -0.6856455222201862 -0.07224484630315187 0.0 -0.5999089802340145 -0.06323325017076045 0.0 -0.772724853925933 -0.056944704498908115 0.0 -0.49741898998575235 -0.03427503681273124 0.0 -0.6348401481525249 -0.002413265744976361 0.0 -0.8086713731818665 -0.05645766783281211 0.0 -0.44929500158345576 -0.018908980097158842 0.0 -0.8620928829619333 -0.05282032211116804 0.0 -0.39402456854087997 -0.004382562607281603 0.0 -0.7700353656491243 -0.05285664765937268 0.0 -0.4978201655329204 -0.03273485339244028 0.0 -0.8977585323423511 -0.07414813761747753 0.0 -0.3865702986244636 -0.02353302830262944 0.0 -0.7108115576386344 -0.04372967689014277 0.0 -0.5530702076773273 -0.02758788089664094 0.0 -0.6983854338183552 -0.06250507756798909 0.0 -0.5808624361548073 -0.05157130482029759 0.0 -0.3738775123111025 -0.007432005763148702 0.0 -0.8906274023898747 -0.056148930608056674 0.0 -0.5084828977636578 -0.020460525418799946 0.0 -0.7444155149399313 -0.04816563885425212 0.0 -0.7923296875496497 -0.05856486554746486 0.0 -0.4761359222391604 -0.02873563223568633 0.0 -0.677121931655144 -0.029990079913701846 0.0 -0.6369048318997345 -0.08484882009755847 0.0 -0.4644584731820772 -0.027166518260413466 0.0 -0.8041711179382945 -0.060402113970270524 0.0 -0.4031714247336326 -0.021578218414991943 0.0 -0.8754543717219825 -0.06654215193288257 0.0 -0.830285970562015 -0.05791419517638785 0.0 -0.4318053242577273 -0.019168739590205444 0.0 -0.4473880062533933 -0.027289748785030807 0.0 -0.8276457614091893 -0.06457114964678366 0.0 -0.8482603702290007 -0.06587869652085662 0.0 -0.43017550019621587 -0.024537283813494744 0.0 -0.4641710954894405 -0.02660635061080768 0.0 -0.7984270234221412 -0.05756973596695981 0.0 -0.5774855025404138 -0.014323939292089971 0.0 -0.8436564580243082 -0.07003520814021519 0.0 -0.44008870625045254 -0.028520021236834225 0.0 -0.7262624300714198 -0.05875544219681272 0.0 -0.5542081504021579 -0.04434899572169216 0.0 -0.7348103664910798 -0.05380290013243342 0.0 -0.5426068877988655 -0.04166121089510693 0.0 -0.733878649111526 -0.056034184702486924 0.0 -0.5386657042623714 -0.04726370128823407 0.0 -0.38818468157613956 -0.023326372315547846 0.0 -0.900385146644874 -0.08053219914459665 0.0 -0.7537331969438753 -0.05070223595090303 0.0 -0.5109447490801191 -0.030680749807852178 0.0 -0.7470200499594978 -0.06478355302356542 0.0 -0.5320590562798766 -0.042055009033892095 0.0 -0.7479462179160252 -0.04570051778847971 0.0 -0.5186271684635927 -0.03252617641071266 0.0 -0.8266573139990686 -0.06981056910940903 0.0 -0.45557047221562263 -0.03086933664353988 0.0 -0.8743113493427307 -0.07651820389372646 0.0 -0.41027163641836273 -0.02448305559553646 0.0 -0.48491525201044805 -0.02878986829828965 0.0 -0.7798085865579045 -0.0546859846321785 0.0 -0.7949801439286313 -0.06812375432639804 0.0 -0.48313156995672935 -0.03586736010420987 0.0 -0.7181374648514649 -0.06423370727427745 0.0 -0.5684350274440831 -0.0484148025986657 0.0 -0.4966028415899802 -0.0345103415403538 0.0 -0.7754287256499589 -0.0616697745961505 0.0 -0.47780165695925747 -0.030283665060704658 0.0 -0.7949054748501141 -0.06243450437134231 0.0 -0.8224726894098295 -0.06398583878470342 0.0 -0.44842474969425605 -0.026077480127662617 0.0 -0.4931978890666292 -0.026900951245191995 0.0 -0.7674629743804179 -0.053698486148759814 0.0 -0.6400246715157811 -0.0028586766453773923 0.0 -0.4000309293908261 -0.02465404282771667 0.0 -0.8820547479041745 -0.07076863837711823 0.0 -0.7207324105508796 -0.04650295165528702 0.0 -0.538860871320578 -0.025055068124328048 0.0 -0.856990456256669 -0.062472611789980786 0.0 -0.4123749899468531 -0.020283665285781734 0.0 -0.831395160126637 -0.05350459685335105 0.0 -0.4248351889428239 -0.009155850792756753 0.0 -0.6372372384727618 -0.08708833008559173 0.0 -0.5112086604435064 -0.03899195858979784 0.0 -0.7592199688225604 -0.050163132843783216 0.0 -0.7833922162000592 -0.05377326164113132 0.0 -0.47161110443376686 -0.01929834597933707 0.0 -0.5377539700307643 -0.02609449172619189 0.0 -0.41962002683174265 -0.023308085151643416 0.0 -0.856401146349018 -0.06515877940598801 0.0 -0.46828331698382136 -0.015318557669108274 0.0 -0.7833011608482545 -0.050160541143284616 0.0 -0.3744937907816131 -0.01497486086934702 0.0 -0.9002152685787135 -0.05941044289772802 0.0 -0.597096295797518 -0.004935805075795381 0.0 -0.42641166756179244 -0.023325044176384757 0.0 -0.8438355422008309 -0.06357052607086185 0.0 -0.8421156490666492 -0.057060106476237 0.0 -0.4191030835616576 -0.012499153346722022 0.0 -0.545228709458423 -0.019879976414510295 0.0 -0.7074231727429491 -0.041027527886710116 0.0 -0.8895185417394832 -0.05092407992781171 0.0 -0.368334792302759 -0.0007985484263248152 0.0 -0.5614150091236997 -0.04525200806220063 0.0 -0.7170557989318669 -0.057396310465386464 0.0 -0.6166215008987205 -0.00125662845453395 0.0 -0.558549179132121 -0.025590989692948787 0.0 -0.7634714946409719 -0.05143383867215504 0.0 -0.502668266906864 -0.03334744989303962 0.0 -0.7789543753208164 -0.06808198390110472 0.0 -0.49703631941549636 -0.03877840893515639 0.0 -0.5932386293757796 -0.009476961813497201 0.0 -0.7608872790024163 -0.051382328518477266 0.0 -0.5096107199220341 -0.03747173795566878 0.0 -0.4691995286430063 -0.027419129812687078 0.0 -0.7953113323714425 -0.057302622410640706 0.0 -0.7699134968875093 -0.05159148290171117 0.0 -0.4877076459861384 -0.02210357607609661 0.0 -0.9018052338690282 -0.07811302607445778 0.0 -0.3837365832056094 -0.022728702325045164 0.0 -0.47091162399603703 -0.029453982977722597 0.0 -0.8038249931956222 -0.0640897728984443 0.0 -0.5297422866809152 -0.040307721159895935 0.0 -0.7467534519089425 -0.05890643569734405 0.0 -0.6905230088840344 -0.06640235379116922 0.0 -0.5865221230352251 -0.058033584140869184 0.0 