<?xml version="1.0" ?>
<VTKFile type="UnstructuredGrid" version="0.1" byte_order="LittleEndian">
<UnstructuredGrid>
<Piece NumberOfPoints="1500" NumberOfCells="1404">
<Points>
<DataArray type="Float32" format="ascii" NumberOfComponents="3">0.0149999997 0.0299999993 0.0 0.0149999997 0.0401869528 0.0 0.00973947905 0.0450999998 0.0 0.0 0.0450999998 0.0 0.0 0.0299999993 0.0 0.0149999997 0.0500130467 0.0 0.0149999997 0.0599999987 0.0 0.0 0.0599999987 0.0 0.0299999993 0.0299999993 0.0 0.0299999993 0.0450999998 0.0 0.0195885208 0.0450999998 0.0 0.0299999993 0.0599999987 0.0 0.0 0.0 0.0 0.0299999993 0.0 0.0 0.0299999993 0.0900000036 0.0 0.0 0.0900000036 0.0 0.00187499996 0.0299999993 0.0 0.00374999992 0.0299999993 0.0 0.00562500022 0.0299999993 0.0 0.00749999983 0.0299999993 0.0 0.00937500037 0.0299999993 0.0 0.0112500004 0.0299999993 0.0 0.0131249996 0.0299999993 0.0 0.0149999997 0.0309388097 0.0 0.0149999997 0.0315993913 0.0 0.0149999997 0.0322599746 0.0 0.0149999997 0.0329205543 0.0 0.0149999997 0.0335811377 0.0 0.0149999997 0.0342417173 0.0 0.0149999997 0.0349023007 0.0 0.0149999997 0.0355628803 0.0 0.0149999997 0.0362234637 0.0 0.0149999997 0.0368840471 0.0 0.0149999997 0.0375446267 0.0 0.0149999997 0.0382052101 0.0 0.0149999997 0.0388657898 0.0 0.0149999997 0.0395263731 0.0 0.0145518444 0.0401767567 0.0 0.0141046178 0.0402073525 0.0 0.0136620263 0.0402784906 0.0 0.0132277375 0.0403895788 0.0 0.0128053501 0.0405397005 0.0 0.012398364 0.0407276079 0.0 0.0120101506 0.0409517474 0.0 0.0116439275 0.0412102602 0.0 0.0113027301 0.0415010042 0.0 0.0109893847 0.0418215692 0.0 0.0107064871 0.042169299 0.0 0.0104563832 0.0425413139 0.0 0.0102411434 0.0429345332 0.0 0.010062553 0.0433456935 0.0 0.00992209092 0.0437713899 0.0 0.00982092042 0.0442080945 0.0 0.00975988153 0.0446521938 0.0 0.00910791382 0.0450999998 0.0 0.00847634859 0.0450999998 0.0 0.0078447843 0.0450999998 0.0 0.00721321953 0.0450999998 0.0 0.00658165431 0.0450999998 0.0 0.00595008954 0.0450999998 0.0 0.00531852478 0.0450999998 0.0 0.00468696002 0.0450999998 0.0 0.00405539526 0.0450999998 0.0 0.00342383026 0.0450999998 0.0 0.0027922655 0.0450999998 0.0 0.00216070074 0.0450999998 0.0 0.00152913586 0.0450999998 0.0 0.000897571037 0.0450999998 0.0 0.0 0.0438416675 0.0 0.0 0.0425833352 0.0 0.0 0.0413249992 0.0 0.0 0.0400666669 0.0 0.0 0.0388083346 0.0 0.0 0.0375499986 0.0 0.0 0.0362916663 0.0 0.0 0.035033334 0.0 0.0 0.0337750018 0.0 0.0 0.0325166658 0.0 0.0 0.0312583335 0.0 0.00975988153 0.0455478057 0.0 0.00982092042 0.045991905 0.0 0.00992209092 0.0464286096 0.0 0.010062553 0.046854306 0.0 0.0102411434 0.0472654663 0.0 0.0104563832 0.0476586856 0.0 0.0107064871 0.0480307005 0.0 0.0109893847 0.0483784303 0.0 0.0113027301 0.0486989953 0.0 0.0116439275 0.0489897393 0.0 0.0120101506 0.0492482521 0.0 0.012398364 0.0494723916 0.0 0.0128053501 0.049660299 0.0 0.0132277375 0.0498104207 0.0 0.0136620263 0.0499215089 0.0 0.0141046178 0.049992647 0.0 0.0145518444 0.0500232428 0.0 0.0149999997 0.0506606586 0.0 0.0149999997 0.0513082705 0.0 0.0149999997 0.0519558825 0.0 0.0149999997 0.0526034944 0.0 0.0149999997 0.05325111 0.0 0.0149999997 0.0538987219 0.0 0.0149999997 0.0545463338 0.0 0.0149999997 0.0551939458 0.0 0.0149999997 0.0558415577 0.0 0.0149999997 0.0564891733 0.0 0.0149999997 0.0571367852 0.0 0.0149999997 0.0577843972 0.0 0.0149999997 0.0584320091 0.0 0.0149999997 0.059079621 0.0 0.0131249996 0.0599999987 0.0 0.0112500004 0.0599999987 0.0 0.00937500037 0.0599999987 0.0 0.00749999983 0.0599999987 0.0 0.00562500022 0.0599999987 0.0 0.00374999992 0.0599999987 0.0 0.00187499996 0.0599999987 0.0 0.0 0.0587583333 0.0 0.0 0.057516668 0.0 0.0 0.0562749989 0.0 0.0 0.0550333336 0.0 0.0 0.0537916683 0.0 0.0 0.0525499992 0.0 0.0 0.0513083339 0.0 0.0 0.0500666648 0.0 0.0 0.0488249995 0.0 0.0 0.0475833341 0.0 0.0 0.0463416651 0.0 0.0195713751 0.0446894132 0.0 0.0195200555 0.0442816839 0.0 0.0194349196 0.0438796543 0.0 0.0193165597 0.0434861258 0.0 0.0191658027 0.0431038328 0.0 0.0189836938 0.0427354388 0.0 0.0187715068 0.0423835143 0.0 0.0185307153 0.0420505032 0.0 0.0182629973 0.0417387299 0.0 0.0179702155 0.0414503627 0.0 0.0176544115 0.041187413 0.0 0.0173177831 0.0409517065 0.0 0.0169626754 0.0407448858 0.0 0.0165915582 0.0405683964 0.0 0.0162070207 0.040423464 0.0 0.0158117376 0.0403110944 0.0 0.0154084601 0.0402320772 0.0 0.0168750007 0.0299999993 0.0 0.0187500007 0.0299999993 0.0 0.0206250008 0.0299999993 0.0 0.0225000009 0.0299999993 0.0 0.0243749991 0.0299999993 0.0 0.0262499992 0.0299999993 0.0 0.0281249993 0.0299999993 0.0 0.0299999993 0.0312583335 0.0 0.0299999993 0.0325166658 0.0 0.0299999993 0.0337750018 0.0 0.0299999993 0.035033334 0.0 0.0299999993 0.0362916663 0.0 0.0299999993 0.0375499986 0.0 0.0299999993 0.0388083346 0.0 0.0299999993 0.0400666669 0.0 0.0299999993 0.0413249992 0.0 0.0299999993 0.0425833352 0.0 0.0299999993 0.0438416675 0.0 0.0290404987 0.0450999998 0.0 0.0283653568 0.0450999998 0.0 0.0276902169 0.0450999998 0.0 0.0270150751 0.0450999998 0.0 0.0263399333 0.0450999998 0.0 0.0256647933 0.0450999998 0.0 0.0249896515 0.0450999998 0.0 0.0243145097 0.0450999998 0.0 0.0236393698 0.0450999998 0.0 0.0229642279 0.0450999998 0.0 0.0222890861 0.0450999998 0.0 0.0216139443 0.0450999998 0.0 0.0209388044 0.0450999998 0.0 0.0202636626 0.0450999998 0.0 0.0281249993 0.0599999987 0.0 0.0262499992 0.0599999987 0.0 0.0243749991 0.0599999987 0.0 0.0225000009 0.0599999987 0.0 0.0206250008 0.0599999987 0.0 0.0187500007 0.0599999987 0.0 0.0168750007 0.0599999987 0.0 0.0154084601 0.049967926 0.0 0.0158117376 0.0498889051 0.0 0.0162070207 0.0497765355 0.0 0.0165915582 0.0496316031 0.0 0.0169626754 0.0494551137 0.0 0.0173177831 0.049248293 0.0 0.0176544115 0.0490125902 0.0 0.0179702155 0.0487496369 0.0 0.0182629973 0.0484612696 0.0 0.0185307153 0.0481494963 0.0 0.0187715068 0.0478164889 0.0 0.0189836938 0.0474645607 0.0 0.0191658027 0.0470961705 0.0 0.0193165597 0.0467138775 0.0 0.0194349196 0.0463203453 0.0 0.0195200555 0.0459183156 0.0 0.0195713751 0.0455105864 0.0 0.0299999993 0.0463416651 0.0 0.0299999993 0.0475833341 0.0 0.0299999993 0.0488249995 0.0 0.0299999993 0.0500666648 0.0 0.0299999993 0.0513083339 0.0 0.0299999993 0.0525499992 0.0 0.0299999993 0.0537916683 0.0 0.0299999993 0.0550333336 0.0 0.0299999993 0.0562749989 0.0 0.0299999993 0.057516668 0.0 0.0299999993 0.0587583333 0.0 0.0 0.0270000007 0.0 0.0 0.0240000002 0.0 0.0 0.0209999997 0.0 0.0 0.0179999992 0.0 0.0 0.0149999997 0.0 0.0 0.0120000001 0.0 0.0 0.00899999961 0.0 0.0 0.00600000005 0.0 0.0 0.00300000003 0.0 0.00187499996 0.0 0.0 0.00374999992 0.0 0.0 0.00562500022 0.0 0.0 0.00749999983 0.0 0.0 0.00937500037 0.0 0.0 0.0112500004 0.0 0.0 0.0131249996 0.0 0.0 0.0149999997 0.0 0.0 0.0168750007 0.0 0.0 0.0187500007 0.0 0.0 0.0206250008 0.0 0.0 0.0225000009 0.0 0.0 0.0243749991 0.0 0.0 0.0262499992 0.0 0.0 0.0281249993 0.0 0.0 0.0299999993 0.00300000003 0.0 0.0299999993 0.00600000005 0.0 0.0299999993 0.00899999961 0.0 0.0299999993 0.0120000001 0.0 0.0299999993 0.0149999997 0.0 0.0299999993 0.0179999992 0.0 0.0299999993 0.0209999997 0.0 0.0299999993 0.0240000002 0.0 0.0299999993 0.0270000007 0.0 0.0299999993 0.063000001 0.0 0.0299999993 0.0659999996 0.0 0.0299999993 0.0689999983 0.0 0.0299999993 0.0719999969 0.0 0.0299999993 0.075000003 0.0 0.0299999993 0.0780000016 0.0 0.0299999993 0.0810000002 0.0 0.0299999993 0.0839999989 0.0 0.0299999993 0.0869999975 0.0 0.0281249993 0.0900000036 0.0 0.0262499992 0.0900000036 0.0 0.0243749991 0.0900000036 0.0 0.0225000009 0.0900000036 0.0 0.0206250008 0.0900000036 0.0 0.0187500007 0.0900000036 0.0 0.0168750007 0.0900000036 0.0 0.0149999997 0.0900000036 0.0 0.0131249996 0.0900000036 0.0 0.0112500004 0.0900000036 0.0 0.00937500037 0.0900000036 0.0 0.00749999983 0.0900000036 0.0 0.00562500022 0.0900000036 0.0 0.00374999992 0.0900000036 0.0 0.00187499996 0.0900000036 0.0 0.0 0.0869999975 0.0 0.0 0.0839999989 0.0 0.0 0.0810000002 0.0 0.0 0.0780000016 0.0 0.0 0.075000003 0.0 0.0 0.0719999969 0.0 0.0 0.0689999983 0.0 0.0 0.0659999996 0.0 0.0 0.063000001 0.0 0.00240605418 0.0317476094 0.0 0.0132285897 0.0308372527 0.0 0.0114639541 0.0308285281 0.0 0.00970989279 0.0308664478 0.0 0.00796741433 0.030946292 0.0 0.00622726884 0.0310834199 0.0 0.00444168784 0.0313186944 0.0 0.0115238708 0.0404538177 0.0 0.0110589247 0.0399643853 0.0 0.0105802957 0.0394543298 0.0 0.0100896806 0.0389274582 0.0 0.00958756451 0.0383866653 0.0 0.00907252356 0.0378334895 0.0 0.00854044221 0.0372676216 0.0 0.00798357651 0.0366861634 0.0 0.00738931261 0.0360825956 0.0 0.00673822826 0.0354451761 0.0 0.00600026548 0.0347540006 0.0 0.00512524834 0.0339741185 0.0 0.00401390065 0.0330347866 0.0 0.000793838175 0.0438955426 0.0 0.000772442494 0.0426918976 0.0 0.000783006602 0.0414899141 0.0 0.000811753387 0.0402907245 0.0 0.000856733182 0.0390956625 0.0 0.000921554572 0.037906155 0.0 0.00101479655 0.0367233306 0.0 0.00115271518 0.0355465077 0.0 0.00136729016 0.0343677737 0.0 0.00172855402 0.0331514254 0.0 0.0133339632 0.0315873995 0.0 0.0134397261 0.0323022977 0.0 0.0135442559 0.032998085 0.0 0.0136464294 0.0336812399 0.0 0.013745822 0.0343553573 0.0 0.013842525 0.0350228548 0.0 0.0139368745 0.0356853306 0.0 0.0140292263 0.0363436677 0.0 0.0141198216 0.0369979888 0.0 0.0142087657 0.0376475193 0.0 0.0142960874 0.0382902175 0.0 0.0143820234 0.0389216021 0.0 0.0144678745 0.0395311117 0.0 0.0116815548 0.0316202343 0.0 0.011899055 0.0323765688 0.0 0.0121123437 0.033103589 0.0 0.0123189483 0.0338073969 0.0 0.0125182495 0.0344934613 0.0 0.0127108386 0.0351662561 0.0 0.0128977867 0.0358290039 0.0 0.0130801173 0.0364835784 0.0 0.0132585336 0.0371304527 0.0 0.0134333326 0.0377685912 0.0 0.0136044715 0.0383952036 0.0 0.0137717454 0.0390052013 0.0 0.0139350798 0.0395906046 0.0 0.0100520272 0.0317044854 0.0 0.010392216 0.0325013697 0.0 0.0107216369 0.0332574546 0.0 0.01103618 0.0339790136 0.0 0.0113357538 0.0346737355 0.0 0.0116223767 0.0353484601 0.0 0.011898635 0.0360082686 0.0 0.0121667851 0.0366562307 0.0 0.0124283545 0.03
[...]
<PointData>
<DataArray Name="displ" NumberOfComponents="3" type="Float32" format="ascii">-2.3659542420747758e-05 0.0001644531406626051 0.0 -2.2142299804885123e-05 0.00017613897915222845 0.0 2.602987500321427e-06 0.00022280209296638773 0.0 -8.609574475723824e-06 0.00021214476272651464 0.0 -1.663329102786563e-05 0.00017545552301335 0.0 -3.111211090129088e-05 0.00025712246098196135 0.0 -3.0213235474135108e-05 0.0002623795482527345 0.0 -2.4957481751191292e-05 0.00024557860034688677 0.0 -2.961268972018602e-05 0.00018170947951080826 0.0 -5.1994269280173874e-05 0.00021131540856761955 0.0 -5.033881924963091e-05 0.00022136915355212968 0.0 -3.5170157759898736e-05 0.00025386380569446227 0.0 -9.851952565810477e-06 0.00012067779416268923 0.0 -2.6282517538176818e-05 0.0001259547061825488 0.0 -3.689896535200314e-05 0.00032207264737535836 0.0 -2.9355262425041688e-05 0.0003128586270877541 0.0 -1.8050346352126475e-05 0.00017479728016056388 0.0 -1.6677256235361318e-05 0.00017404044299677536 0.0 -1.9282610641914796e-05 0.00017348722969262197 0.0 -2.0684041976312953e-05 0.00016998803552727927 0.0 -2.162144176216583e-05 0.0001672431918252194 0.0 -2.119865754328769e-05 0.00016483493347360819 0.0 -2.3669111587666675e-05 0.00016438213509468514 0.0 -2.293522501858162e-05 0.00016494714163942862 0.0 -2.249431696344572e-05 0.00016515619939140287 0.0 -2.3746452743932364e-05 0.00016759323309856135 0.0 -2.4638963260531506e-05 0.00016681745739345402 0.0 -2.681234564631839e-05 0.00016886528988620985 0.0 -2.6149132179629126e-05 0.00016755255549782215 0.0 -2.3379747987794815e-05 0.0001693590214750697 0.0 -2.433458900053514e-05 0.0001671600966678579 0.0 -2.475523401941426e-05 0.00016922382680497215 0.0 -2.4099816876195878e-05 0.00017011511024102316 0.0 -2.60164332174747e-05 0.00016599921217645106 0.0 -2.9782486001655363e-05 0.00016706751600952435 0.0 -1.659848402346942e-05 0.00017296596701002907 0.0 -2.676017964714175e-05 0.0001686261695491357 0.0 -1.6480239899860788e-05 0.0001717491368904465 0.0 -2.351436670793347e-05 0.00017615633320680054 0.0 -1.8326828926015594e-05 0.00017299705220535995 0.0 -1.5294435729438838e-05 0.00016873948931102196 0.0 -7.258334179593688e-06 0.00017058467318709842 0.0 -4.043537713046946e-06 0.00017160039342869874 0.0 -1.3045729573558616e-05 0.000171590119520514 0.0 3.6057683648490043e-06 0.00017057939580458295 0.0 -1.4834867658646507e-05 0.00018418693115040632 0.0 -1.0188234081981595e-05 0.00018569358522352062 0.0 -9.324039829145245e-06 0.00018238975352658025 0.0 -2.9457873400569313e-06 0.00018006772682555242 0.0 -1.4183648341596111e-05 0.00018950091298368076 0.0 -5.4928017115425425e-06 0.0001915064684377147 0.0 -9.024344038093077e-06 0.00019127745254889208 0.0 -6.583481185771032e-06 0.00019906635506596973 0.0 -1.4812906502180676e-05 0.0002046463958113958 0.0 -1.0168236657821634e-05 0.0002120386712488883 0.0 -9.15752835867163e-06 0.00021231675543427562 0.0 -1.2687863733342852e-05 0.000214975354536486 0.0 -6.3047976543530225e-06 0.00020976893887544564 0.0 -1.0440307647729854e-05 0.0002138494097538842 0.0 -1.2884777839803619e-05 0.0002097897268787513 0.0 -1.057057140437139e-05 0.00021163435455311057 0.0 -1.2589112349429775e-05 0.00020774179889986293 0.0 -7.489249294644662e-06 0.00021282080829594858 0.0 -8.376299761864982e-06 0.00020633928676907235 0.0 -9.699425010041629e-06 0.0002099269466012978 0.0 -8.38163046769194e-06 0.00021127256902219309 0.0 -8.860992071368733e-06 0.00021098649624657717 0.0 -8.897507948636272e-06 0.00021133392658418903 0.0 -8.566362905037519e-06 0.00020501180611269226 0.0 -1.0085333627254618e-05 0.00020801689056231052 0.0 -1.1115298372842178e-05 0.0002037743547798898 0.0 -1.2770224293143404e-05 0.00019936936758248048 0.0 -1.2895476495338032e-05 0.00019850374008292053 0.0 -1.6666652366699963e-05 0.00019259950879260956 0.0 -1.580653569538436e-05 0.00018983034868199735 0.0 -1.5756719363835118e-05 0.00018561298428290205 0.0 -1.3553203760669484e-05 0.00018287412953835937 0.0 -1.4781540043555112e-05 0.0001799928234939594 0.0 -1.7611558892241353e-05 0.00017663175074283412 0.0 1.0084027397692658e-06 0.00021522962513145248 0.0 -6.688772638015617e-06 0.00023833621330682263 0.0 -6.1321502481047274e-06 0.00022627926388161566 0.0 -8.62625090140021e-06 0.00023558641603737995 0.0 -6.952873087392461e-06 0.00024372483904170104 0.0 -2.606180280797254e-06 0.00024280474569471003 0.0 -2.0493652621317497e-05 0.00023981954909398008 0.0 -1.189242433198021e-05 0.00025008114517697903 0.0 -1.0428623138274646e-05 0.00024936122754693916 0.0 -1.9090050100725603e-05 0.00025209858079518866 0.0 -1.9460282516966686e-05 0.0002448515971839259 0.0 -2.1605164392009375e-05 0.00025380510019128676 0.0 -2.3684825928043845e-05 0.00025151076727341514 0.0 -2.4624984282762053e-05 0.0002562942851565433 0.0 -2.2597465112762263e-05 0.00025976632490363517 0.0 -1.9106319275410326e-05 0.00025139284585056843 0.0 -2.5325773982648035e-05 0.00025965353884872783 0.0 -2.8794896370071277e-05 0.0002564971121406091 0.0 -2.4044466779795916e-05 0.00025433610509683854 0.0 -1.8995569734429593e-05 0.0002572164264331472 0.0 -2.7722024815777044e-05 0.00025678969327784377 0.0 -2.539078074893853e-05 0.00026053629758167064 0.0 -2.447826339923795e-05 0.0002531559298204862 0.0 -2.644575625969185e-05 0.00025864926713823846 0.0 -2.3819202475880294e-05 0.0002570769007845513 0.0 -2.8134182252545092e-05 0.00025167933088644795 0.0 -2.8184498052467788e-05 0.0002593244247904493 0.0 -2.943782751238766e-05 0.0002602550820096879 0.0 -2.9728846288717372e-05 0.0002598898121218537 0.0 -2.7374066233138544e-05 0.0002575665184998572 0.0 -3.0329527490040007e-05 0.00026127274894003033 0.0 -3.014632737557182e-05 0.00026018838703854554 0.0 -2.707329174843123e-05 0.0002599594919490532 0.0 -2.7510801680999335e-05 0.0002571532347219629 0.0 -2.699747341217473e-05 0.0002543094865814804 0.0 -2.471337295723815e-05 0.00025263945044494147 0.0 -2.66484587376819e-05 0.000250044328655703 0.0 -2.578730591639791e-05 0.00024746842896675056 0.0 -2.464719863129493e-05 0.00024538103239076935 0.0 -2.500004220197113e-05 0.00024266595334723027 0.0 -2.320853649476621e-05 0.00023630805189872565 0.0 -2.2470703939793636e-05 0.00023549021420696478 0.0 -2.11839391610249e-05 0.0002303140716107252 0.0 -1.798273252337747e-05 0.00023011795907390472 0.0 -1.9349108936902597e-05 0.00022151431525640604 0.0 -1.322348184711307e-05 0.00022194528542500357 0.0 -8.485981526698528e-06 0.00022108050289870024 0.0 -1.0203441846964514e-05 0.00021578628466712406 0.0 -8.231190342075156e-06 0.00021894931619654317 0.0 -4.194930425939103e-05 0.00020618286434064754 0.0 -3.657178043927803e-05 0.0002017740926135938 0.0 -4.12773268804491e-05 0.00021447380548210077 0.0 -4.338383812721614e-05 0.00019860576474880448 0.0 -3.743026917349425e-05 0.00019856976422177037 0.0 -4.7861133966097555e-05 0.0001869423153014438 0.0 -4.108540305660965e-05 0.00018976950625250986 0.0 -4.2398484054718735e-05 0.00018484326166332476 0.0 -4.041207496314474e-05 0.00017997664474312462 0.0 -3.401377721026148e-05 0.00018255915751804193 0.0 -3.238654929048759e-05 0.00018252200739795317 0.0 -3.330453967209824e-05 0.00017786137445800488 0.0 -3.969576731645749e-05 0.0001707517364415349 0.0 -3.0865240480544166e-05 0.00017198338691273773 0.0 -2.6763146636926222e-05 0.00017759449854429018 0.0 -2.3276358567900742e-05 0.00017243471319819493 0.0 -4.373237420451403e-05 0.00016310334832041028 0.0 -2.6032270242128833e-05 0.00016649045198222567 0.0 -2.7766063909531436e-05 0.00016957712743970998 0.0 -3.11434337385304e-05 0.0001740867345581448 0.0 -3.1321324849725814e-05 0.0001779943579664744 0.0 -3.2389467169049875e-05 0.00017950688778072126 0.0 -3.0596144085479e-05 0.00018047963176840882 0.0 -3.188271776416494e-05 0.00018204322938390416 0.0 -3.6128415280403554e-05 0.0001881533539010565 0.0 -3.4694252574129075e-05 0.00019066789396193534 0.0 -3.2562141369550714e-05 0.00018887882092333622 0.0 -3.66885959591265e-05 0.00019775653282951396 0.0 -3.8715156326300664e-05 0.000198575948570613 0.0 -4.158366372839717e-05 0.00020488921549632864 0.0 -4.354998833026106e-05 0.0002073626946386595 0.0 -4.79679900087302e-05 0.00020947593294172204 0.0 -4.8209889740219325e-05 0.00020151611327159713 0.0 -5.369396464734978e-05 0.00020886757124949124 0.0 -4.9554874759528756e-05 0.00020940929532764355 0.0 -5.044045385027481e-05 0.0002164243940147249 0.0 -4.595799500380201e-05 0.0002185191676924054 0.0 -4.3011632821545456e-05 0.000210306801462482 0.0 -5.0472404077321944e-05 0.00021085638260031364 0.0 -5.432435985976966e-05 0.00021429665688428454 0.0 -5.023671098164936e-05 0.00021125154950479177 0.0 -5.0219307970621296e-05 0.0002161843069447066 0.0 -4.4142083069456335e-05 0.00021332159724289898 0.0 -4.259461658023342e-05 0.0002124363142373218 0.0 -4.2397061259979634e-05 0.00021549606733609 0.0 -4.902258298559002e-05 0.00020570842256013128 0.0 -4.736546408815324e-05 0.00022526262685896298 0.0 -4.5042703310052056e-05 0.0002109419776385756 0.0 -3.2812852002247843e-05 0.00021701440873782377 0.0 -3.1860384165113576e-05 0.00025445428498573216 0.0 -3.335561255915617e-05 0.0002541682934334146 0.0 -3.380000988385633e-05 0.0002548601047510847 0.0 -3.2308991438651815e-05 0.0002554202081450254 0.0 -3.087557568194027e-05 0.0002547981493728509 0.0 -3.0783850108147e-05 0.00025879382509451485 0.0 -2.8399124156882197e-05 0.00026068671442737267 0.0 -1.6216580995246513e-05 0.00025436191137563543 0.0 -3.0920208402867184e-05 0.00025950010586166353 0.0 -2.8431179238176824e-05 0.00025095403641223164 0.0 -3.21343913906877e-05 0.0002509932142005557 0.0 -3.500812012601431e-05 0.00025319626208711885 0.0 -3.238220085461355e-05 0.00024686639959805716 0.0 -3.66433455882818e-05 0.00023783759474372296 0.0 -3.335186849727451e-05 0.00025380079558903046 0.0 -3.749235912981077e-05 0.00023258868168108947 0.0 -3.703293698784955e-05 0.00024183156356568397 0.0 -4.279554293451795e-05 0.00024094118530593837 0.0 -2.9808650744941318e-05 0.00023670137499518646 0.0 -4.337981228409483e-05 0.0002332419720859858 0.0 -4.445654113149964e-05 0.0002297249012894131 0.0 -5.3518361832052376e-05 0.00021707615091265089 0.0 -4.236052691559204e-05 0.00021672986549772392 0.0 -3.723369673556116e-05 0.00022052354457611673 0.0 -4.8144897633906677e-05 0.00022013943231744102 0.0 -4.3684413584754007e-05 0.00021479159952684734 0.0 -4.3625669510248094e-05 0.00022059058287139712 0.0 -4.369266560994997e-05 0.00023704216174580932 0.0 -3.700784052542665e-05 0.0002269876273193128 0.0 -3.705226567330422e-05 0.00023400775386213187 0.0 -3.444059732068904e-05 0.00023017534590479566 0.0 -3.3844265141638086e-05 0.0002466111445979883 0.0 -3.5662515771117024e-05 0.0002456957722071071 0.0 -3.563119260434203e-05 0.00024428373750654095 0.0 -3.9439382525003636e-05 0.0002518567033565024 0.0 -1.4277665841642904e-05 0.00016670758860149907 0.0 -1.631185222259902e-05 0.00016164704768370194 0.0 -1.5247557085162707e-05 0.000155689203241386 0.0 -1.4522059592660543e-05 0.00014800620633878143 0.0 -1.129479993563754e-05 0.00014328167680111148 0.0 -9.246582938250562e-06 0.00013650827298718703 0.0 -9.122999839840377e-06 0.0001333431965197996 0.0 -9.597443572809624e-06 0.0001279908611256934 0.0 -7.1587328497418905e-06 0.00012342536233870535 0.0 -9.629750696285718e-06 0.00012105775051732903 0.0 -1.2976901480856381e-05 0.00012281223186611737 0.0 -1.519001251114925e-05 0.0001234036584860853 0.0 -2.020027663822926e-05 0.00012251166270750544 0.0 -2.033870116643157e-05 0.0001211942081815345 0.0 -2.250627255162814e-05 0.0001216361685284062 0.0 -2.2573007536382097e-05 0.0001206991011706893 0.0 -2.1358197083548162e-05 0.00012102970996240372 0.0 -1.8237837139504322e-05 0.00011904903881308391 0.0 -1.977815424728512e-05 0.00012121393237305904 0.0 -2.2688966356675545e-05 0.00012221441935741405 0.0 -2.3308757351942337e-05 0.0001243568874634185 0.0 -2.37560428498539e-05 0.00012540493764343717 0.0 -2.399507506819467e-05 0.00012769678999029606 0.0 -2.492542838892371e-05 0.00012829976038099332 0.0 -2.311370238780935e-05 0.0001307103939690913 0.0 -2.4743998338401443e-05 0.00013584659477632524 0.0 -2.5997770492469538e-05 0.00014143044653018593 0.0 -2.7666523160570877e-05 0.00014665960535590477 0.0 -3.140396469698204e-05 0.00015248525847583733 0.0 -3.1004846383174636e-05 0.0001604460009225157 0.0 -2.9477751941603515e-05 0.00016330558097942037 0.0 -2.841189195692088e-05 0.00016896890082797423 0.0 -2.939363584702098e-05 0.00017441370998493448 0.0 -3.521580390590515e-05 0.00026215285584566623 0.0 -3.5110134624177956e-05 0.00026993280957429174 0.0 -3.234971497804025e-05 0.0002714656900599454 0.0 -3.10044181390154e-05 0.00028062728257729336 0.0 -3.2708278505802e-05 0.000285808179644253 0.0 -3.505673527605145e-05 0.00028999626936789804 0.0 -3.987390962572463e-05 0.00029626001793419353 0.0 -4.1980133532525784e-05 0.0003044460688307196 0.0 -4.2169873386971275e-05 0.0003099086814866995 0.0 -3.8681015134083234e-05 0.0003196470887893813 0.0 -3.9980261431323455e-05 0.00031666317484620686 0.0 -4.0832407846199567e-05 0.0003175297989209043 0.0 -3.864444580462851e-05 0.0003170591970892165 0.0 -3.9862270957086506e-05 0.00031802234731321616 0.0 -3.5543984063737806e-05 0.00031622910493335504 0.0 -3.653162502906056e-05 0.00031925052093868665 0.0 -3.558728712965615e-05 0.00031942953667174966 0.0 -3.156755934421116e-05 0.0003193943059901507 0.0 -3.139236285579981e-05 0.0003193425780163025 0.0 -3.09205808384098e-05 0.0003194763836745156 0.0 -2.8615559183645077e-05 0.0003172469819469938 0.0 -2.9900361332974692e-05 0.0003161773669114529 0.0 -2.7531463101876245e-05 0.0003136532247408382 0.0 -2.748251101002166e-05 0.000313696207691886 0.0 -2.974500098596893e-05 0.0003096167348363886 0.0 -2.984834486171997e-05 0.00030133769815221084 0.0 -2.8605983429604893e-05 0.000297432946950708 0.0 -2.656526837946294e-05 0.0002949431771374058 0.0 -2.6826213644843804e-05 0.00028680962582957123 0.0 -2.6643190805495883e-05 0.00028176084675761095 0.0 -3.075205819153768e-05 0.0002719941560557538 0.0 -2.814394849727354e-05 0.0002634324491660483 0.0 -2.9000438819809625e-05 0.00025539580377089604 0.0 -1.691839416329582e-05 0.0001779932797511958 0.0 -2.1723465767294892e-05 0.0001663739274262686 0.0 -2.1990228274500337e-05 0.00016810139174507446 0.0 -2.2278595745577933e-05 0.0001706379782036443 0.0 -1.968154302471402e-05 0.0001725370040054777 0.0 -2.0515673628081764e-05 0.00017298103199744877 0.0 -1.999055755002248e-05 0.0001757359811798496 0.0 -1.9242102457581427e-05 0.00017402056484880208 0.0 -1.4590519539180758e-05 0.0001800191513548649 0.0 -2.123825426229403e-05 0.00017795289834213562 0.0 -2.0840139227339385e-05 0.00018282219577861038 0.0 -2.0143592889040333e-05 0.00018099052590585086 0.0 -1.8707244641043428e-05 0.00018407173136477395 0.0 -2.0860953152538535e-05 0.0001831374057301308 0.0 -2.1786390669744904e-05 0.00018129545904484932 0.0 -1.9405974132532188e-05 0.00018273099242981184 0.0 -1.981760031530319e-05 0.00018159578825876552 0.0 -1.96395278277072e-05 0.00018068770909046645 0.0 -1.8440000646214706e-05 0.00017954402549268174 0.0 -1.9087168121579692e-05 0.00017906578113599983 0.0 -9.355226572469861e-06 0.0002070422028212091 0.0 -9.381870031754193e-06 0.00020433327234134778 0.0 -1.2751757610422682e-05 0.0002016264589265101 0.0 -9.775530190367713e-06 0.0001972846669633372 0.0 -1.3693099249202646e-05 0.0001965534202714634 0.0 -1.3115822938249094e-05 0.0001937339557825245 0.0 -1.5965007520462406e-05 0.00018900069102186116 0.0 -1.4437779045842341e-05 0.00018738987696646125 0.0 -1.676508558826595e-05 0.00018349249010581582 0.0 -1.7534507644239923e-05 0.00018156724868055108 0.0 -2.4756852779642002e-05 0.000165955875596601 0.0 -2.580325864206842e-05 0.0001664212234636455 0.0 -2.3950464032183568e-05 0.00016667864202736418 0.0 -2.3323742883745883e-05 0.00016753558940224545 0.0 -2.3973352632365778e-05 0.00016787774784188036 0.0 -2.5639895051111955e-05 0.00016993355645071178 0.0 -2.326809510391669e-05 0.00016744412964737199 0.0 -2.2728037575311813e-05 0.00017160058840752976 0.0 -2.2569564408966348e-05 0.0001680068382078416 0.0 -2.2482868042333643e-05 0.00017178384716470406 0.0 -2.4742280109496756e-05 0.00017273048450192633 0.0 -2.484177148053172e-05 0.0001698072444087539 0.0 -2.4388120342186284e-05 0.00017197218406503304 0.0 -2.0465009658344743e-05 0.00016978491239649676 0.0 -2.2487540380720805e-05 0.00016712842934092008 0.0 -2.2430157397715514e-05 0.0001680424593708265 0.0 -2.4275754587865903e-05 0.00016911831512846702 0.0 -1.9097778686972792e-05 0.00016910913314183997 0.0 -2.1489840341756776e-05 0.0001694743408859795 0.0 -2.6756738501695695e-05 0.00017007529327672428 0.0 -2.1413854083166522e-05 0.00016796283723376267 0.0 -2.685911145146436e-05 0.00016850532391521144 0.0 -2.4176682903242426e-05 0.00017157043823591968 0.0 -1.9483139412789177e-05 0.00017032524618352057 0.0 -2.6246694493755926e-05 0.00017030668119512443 0.0 -2.2955374685569798e-05 0.00017163530903347945 0.0 -2.130606629877484e-05 0.00016864228361651018 0.0 -2.1379852416015377e-05 0.0001694415747708776 0.0 -2.305587118792617e-05 0.00017231433711321627 0.0 -2.2474792655823108e-05 0.00017112336885590488 0.0 -2.4250574079628873e-05 0.00017102182301235547 0.0 -2.1343860641389124e-05 0.0001695941513787678 0.0 -2.4027060587517214e-05 0.00017054660456557348 0.0 -2.3561746042938388e-05 0.00017149932308881396 0.0 -2.5716818888261842e-05 0.0001724088537225748 0.0 -2.14047651541219e-05 0.0001707344290362909 0.0 -2.314121741269762e-05 0.00017025608429713294 0.0 -2.373608262415147e-05 0.0001694872085527396 0.0 -2.2335095548840076e-05 0.00016993335327694534 0.0 -2.152144125583598e-05 0.00017380125203315637 0.0 -2.1850719497169132e-05 0.0001754549081359614 0.0 -2.095928076254529e-05 0.000173972322397048 0.0 -2.1695446973360923e-05 0.00017465218102081134 0.0 -2.2492886882839894e-05 0.00017362297336145208 0.0 -2.2850042407747076e-05 0.00017425065227431353 0.0 -2.2149300953105092e-05 0.0001741319332856315 0.0 -2.1961704790192294e-05 0.00017395860551847877 0.0 -1.9924268802502247e-05 0.00017373908971753276 0.0 -2.3599625056970598e-05 0.00017634388428000632 0.0 -2.081177773931296e-05 0.0001702602430929149 0.0 -1.7106859778724333e-05 0.00017369565101757874 0.0 -2.106309639575726e-05 0.00017490996958825918 0.0 -2.083791941739768e-05 0.00017703736876752333 0.0 -2.065043963869315e-05 0.00017514199837453473 0.0 -2.0981225539758183e-05 0.00017616725667494535 0.0 -2.268396857652972e-05 0.00017540608730412223 0.0 -1.9982083488072934e-05 0.00017603504699814537 0.0 -2.619690803854703e-05 0.00017575574060575675 0.0 -2.2474571361595164e-05 0.00017818843620821063 0.0 -2.193515489331987e-05 0.00017573036118330893 0.0 -2.6260746183685183e-05 0.00018066423758189305 0.0 -2.0840065393404406e-05 0.00017338622065330076 0.0 -2.43397639209122e-05 0.00017711676032241638 0.0 -1.8884918239057765e-05 0.00017292475959897842 0.0 -2.629034074899328e-05 0.00017263429292906 0.0 -2.0088656078968342e-05 0.00017734678785074262 0.0 -1.9463227290557293e-05 0.000179653141087271 0.0 -1.9905658089992704e-05 0.00018183857781136058 0.0 -2.1305395299544705e-05 0.00018134257365813957 0.0 -2.21264877208248e-05 0.00018211171686706033 0.0 -1.8593953338757376e-05 0.00018032001593172098 0.0 -2.1211849495035246e-05 0.00018065687426396717 0.0 -2.030797306725395e-05 0.00017892385985866175 0.0 -2.3397572142641905e-05 0.0001811676261575999 0.0 -1.8486117457820802e-05 0.00018038676808136966 0.0 -1.6960662445518325e-05 0.00017503130101057096 0.0 -2.220243849073348e-05 0.00018055072584271557 0.0 -2.0509172395575235e-05 0.000169272518183732 0.0 -1.966824641293676e-05 0.00018206541840439368 0.0 -1.518392603445258e-05 0.00017684018354228643 0.0 -1.2610506788519636e-05 0.00018399950325055439 0.0 -1.2091111513540052e-05 0.0001879657005166795 0.0 -1.0812489701012828e-05 0.00019005708498292406 0.0 -1.1343983925690653e-05 0.0001947270050266277 0.0 -1.1225702752925165e-05 0.000199000263268953 0.0 -8.366977414267052e-06 0.0002058730866447914 0.0 -5.059180790282809e-06 0.00021143448190150867 0.0 -1.4646594373057218e-05 0.00020815790801503273 0.0 -1.9136268491059132e-05 0.00017961603898091185 0.0 -1.706675904442