<?xml version="1.0" ?>
<VTKFile type="UnstructuredGrid" version="0.1" byte_order="LittleEndian">
<UnstructuredGrid>
<Piece NumberOfPoints="1500" NumberOfCells="1404">
<Points>
<DataArray type="Float32" format="ascii" NumberOfComponents="3">0.0149999997 0.0299999993 0.0 0.0149999997 0.0401869528 0.0 0.00973947905 0.0450999998 0.0 0.0 0.0450999998 0.0 0.0 0.0299999993 0.0 0.0149999997 0.0500130467 0.0 0.0149999997 0.0599999987 0.0 0.0 0.0599999987 0.0 0.0299999993 0.0299999993 0.0 0.0299999993 0.0450999998 0.0 0.0195885208 0.0450999998 0.0 0.0299999993 0.0599999987 0.0 0.0 0.0 0.0 0.0299999993 0.0 0.0 0.0299999993 0.0900000036 0.0 0.0 0.0900000036 0.0 0.00187499996 0.0299999993 0.0 0.00374999992 0.0299999993 0.0 0.00562500022 0.0299999993 0.0 0.00749999983 0.0299999993 0.0 0.00937500037 0.0299999993 0.0 0.0112500004 0.0299999993 0.0 0.0131249996 0.0299999993 0.0 0.0149999997 0.0309388097 0.0 0.0149999997 0.0315993913 0.0 0.0149999997 0.0322599746 0.0 0.0149999997 0.0329205543 0.0 0.0149999997 0.0335811377 0.0 0.0149999997 0.0342417173 0.0 0.0149999997 0.0349023007 0.0 0.0149999997 0.0355628803 0.0 0.0149999997 0.0362234637 0.0 0.0149999997 0.0368840471 0.0 0.0149999997 0.0375446267 0.0 0.0149999997 0.0382052101 0.0 0.0149999997 0.0388657898 0.0 0.0149999997 0.0395263731 0.0 0.0145518444 0.0401767567 0.0 0.0141046178 0.0402073525 0.0 0.0136620263 0.0402784906 0.0 0.0132277375 0.0403895788 0.0 0.0128053501 0.0405397005 0.0 0.012398364 0.0407276079 0.0 0.0120101506 0.0409517474 0.0 0.0116439275 0.0412102602 0.0 0.0113027301 0.0415010042 0.0 0.0109893847 0.0418215692 0.0 0.0107064871 0.042169299 0.0 0.0104563832 0.0425413139 0.0 0.0102411434 0.0429345332 0.0 0.010062553 0.0433456935 0.0 0.00992209092 0.0437713899 0.0 0.00982092042 0.0442080945 0.0 0.00975988153 0.0446521938 0.0 0.00910791382 0.0450999998 0.0 0.00847634859 0.0450999998 0.0 0.0078447843 0.0450999998 0.0 0.00721321953 0.0450999998 0.0 0.00658165431 0.0450999998 0.0 0.00595008954 0.0450999998 0.0 0.00531852478 0.0450999998 0.0 0.00468696002 0.0450999998 0.0 0.00405539526 0.0450999998 0.0 0.00342383026 0.0450999998 0.0 0.0027922655 0.0450999998 0.0 0.00216070074 0.0450999998 0.0 0.00152913586 0.0450999998 0.0 0.000897571037 0.0450999998 0.0 0.0 0.0438416675 0.0 0.0 0.0425833352 0.0 0.0 0.0413249992 0.0 0.0 0.0400666669 0.0 0.0 0.0388083346 0.0 0.0 0.0375499986 0.0 0.0 0.0362916663 0.0 0.0 0.035033334 0.0 0.0 0.0337750018 0.0 0.0 0.0325166658 0.0 0.0 0.0312583335 0.0 0.00975988153 0.0455478057 0.0 0.00982092042 0.045991905 0.0 0.00992209092 0.0464286096 0.0 0.010062553 0.046854306 0.0 0.0102411434 0.0472654663 0.0 0.0104563832 0.0476586856 0.0 0.0107064871 0.0480307005 0.0 0.0109893847 0.0483784303 0.0 0.0113027301 0.0486989953 0.0 0.0116439275 0.0489897393 0.0 0.0120101506 0.0492482521 0.0 0.012398364 0.0494723916 0.0 0.0128053501 0.049660299 0.0 0.0132277375 0.0498104207 0.0 0.0136620263 0.0499215089 0.0 0.0141046178 0.049992647 0.0 0.0145518444 0.0500232428 0.0 0.0149999997 0.0506606586 0.0 0.0149999997 0.0513082705 0.0 0.0149999997 0.0519558825 0.0 0.0149999997 0.0526034944 0.0 0.0149999997 0.05325111 0.0 0.0149999997 0.0538987219 0.0 0.0149999997 0.0545463338 0.0 0.0149999997 0.0551939458 0.0 0.0149999997 0.0558415577 0.0 0.0149999997 0.0564891733 0.0 0.0149999997 0.0571367852 0.0 0.0149999997 0.0577843972 0.0 0.0149999997 0.0584320091 0.0 0.0149999997 0.059079621 0.0 0.0131249996 0.0599999987 0.0 0.0112500004 0.0599999987 0.0 0.00937500037 0.0599999987 0.0 0.00749999983 0.0599999987 0.0 0.00562500022 0.0599999987 0.0 0.00374999992 0.0599999987 0.0 0.00187499996 0.0599999987 0.0 0.0 0.0587583333 0.0 0.0 0.057516668 0.0 0.0 0.0562749989 0.0 0.0 0.0550333336 0.0 0.0 0.0537916683 0.0 0.0 0.0525499992 0.0 0.0 0.0513083339 0.0 0.0 0.0500666648 0.0 0.0 0.0488249995 0.0 0.0 0.0475833341 0.0 0.0 0.0463416651 0.0 0.0195713751 0.0446894132 0.0 0.0195200555 0.0442816839 0.0 0.0194349196 0.0438796543 0.0 0.0193165597 0.0434861258 0.0 0.0191658027 0.0431038328 0.0 0.0189836938 0.0427354388 0.0 0.0187715068 0.0423835143 0.0 0.0185307153 0.0420505032 0.0 0.0182629973 0.0417387299 0.0 0.0179702155 0.0414503627 0.0 0.0176544115 0.041187413 0.0 0.0173177831 0.0409517065 0.0 0.0169626754 0.0407448858 0.0 0.0165915582 0.0405683964 0.0 0.0162070207 0.040423464 0.0 0.0158117376 0.0403110944 0.0 0.0154084601 0.0402320772 0.0 0.0168750007 0.0299999993 0.0 0.0187500007 0.0299999993 0.0 0.0206250008 0.0299999993 0.0 0.0225000009 0.0299999993 0.0 0.0243749991 0.0299999993 0.0 0.0262499992 0.0299999993 0.0 0.0281249993 0.0299999993 0.0 0.0299999993 0.0312583335 0.0 0.0299999993 0.0325166658 0.0 0.0299999993 0.0337750018 0.0 0.0299999993 0.035033334 0.0 0.0299999993 0.0362916663 0.0 0.0299999993 0.0375499986 0.0 0.0299999993 0.0388083346 0.0 0.0299999993 0.0400666669 0.0 0.0299999993 0.0413249992 0.0 0.0299999993 0.0425833352 0.0 0.0299999993 0.0438416675 0.0 0.0290404987 0.0450999998 0.0 0.0283653568 0.0450999998 0.0 0.0276902169 0.0450999998 0.0 0.0270150751 0.0450999998 0.0 0.0263399333 0.0450999998 0.0 0.0256647933 0.0450999998 0.0 0.0249896515 0.0450999998 0.0 0.0243145097 0.0450999998 0.0 0.0236393698 0.0450999998 0.0 0.0229642279 0.0450999998 0.0 0.0222890861 0.0450999998 0.0 0.0216139443 0.0450999998 0.0 0.0209388044 0.0450999998 0.0 0.0202636626 0.0450999998 0.0 0.0281249993 0.0599999987 0.0 0.0262499992 0.0599999987 0.0 0.0243749991 0.0599999987 0.0 0.0225000009 0.0599999987 0.0 0.0206250008 0.0599999987 0.0 0.0187500007 0.0599999987 0.0 0.0168750007 0.0599999987 0.0 0.0154084601 0.049967926 0.0 0.0158117376 0.0498889051 0.0 0.0162070207 0.0497765355 0.0 0.0165915582 0.0496316031 0.0 0.0169626754 0.0494551137 0.0 0.0173177831 0.049248293 0.0 0.0176544115 0.0490125902 0.0 0.0179702155 0.0487496369 0.0 0.0182629973 0.0484612696 0.0 0.0185307153 0.0481494963 0.0 0.0187715068 0.0478164889 0.0 0.0189836938 0.0474645607 0.0 0.0191658027 0.0470961705 0.0 0.0193165597 0.0467138775 0.0 0.0194349196 0.0463203453 0.0 0.0195200555 0.0459183156 0.0 0.0195713751 0.0455105864 0.0 0.0299999993 0.0463416651 0.0 0.0299999993 0.0475833341 0.0 0.0299999993 0.0488249995 0.0 0.0299999993 0.0500666648 0.0 0.0299999993 0.0513083339 0.0 0.0299999993 0.0525499992 0.0 0.0299999993 0.0537916683 0.0 0.0299999993 0.0550333336 0.0 0.0299999993 0.0562749989 0.0 0.0299999993 0.057516668 0.0 0.0299999993 0.0587583333 0.0 0.0 0.0270000007 0.0 0.0 0.0240000002 0.0 0.0 0.0209999997 0.0 0.0 0.0179999992 0.0 0.0 0.0149999997 0.0 0.0 0.0120000001 0.0 0.0 0.00899999961 0.0 0.0 0.00600000005 0.0 0.0 0.00300000003 0.0 0.00187499996 0.0 0.0 0.00374999992 0.0 0.0 0.00562500022 0.0 0.0 0.00749999983 0.0 0.0 0.00937500037 0.0 0.0 0.0112500004 0.0 0.0 0.0131249996 0.0 0.0 0.0149999997 0.0 0.0 0.0168750007 0.0 0.0 0.0187500007 0.0 0.0 0.0206250008 0.0 0.0 0.0225000009 0.0 0.0 0.0243749991 0.0 0.0 0.0262499992 0.0 0.0 0.0281249993 0.0 0.0 0.0299999993 0.00300000003 0.0 0.0299999993 0.00600000005 0.0 0.0299999993 0.00899999961 0.0 0.0299999993 0.0120000001 0.0 0.0299999993 0.0149999997 0.0 0.0299999993 0.0179999992 0.0 0.0299999993 0.0209999997 0.0 0.0299999993 0.0240000002 0.0 0.0299999993 0.0270000007 0.0 0.0299999993 0.063000001 0.0 0.0299999993 0.0659999996 0.0 0.0299999993 0.0689999983 0.0 0.0299999993 0.0719999969 0.0 0.0299999993 0.075000003 0.0 0.0299999993 0.0780000016 0.0 0.0299999993 0.0810000002 0.0 0.0299999993 0.0839999989 0.0 0.0299999993 0.0869999975 0.0 0.0281249993 0.0900000036 0.0 0.0262499992 0.0900000036 0.0 0.0243749991 0.0900000036 0.0 0.0225000009 0.0900000036 0.0 0.0206250008 0.0900000036 0.0 0.0187500007 0.0900000036 0.0 0.0168750007 0.0900000036 0.0 0.0149999997 0.0900000036 0.0 0.0131249996 0.0900000036 0.0 0.0112500004 0.0900000036 0.0 0.00937500037 0.0900000036 0.0 0.00749999983 0.0900000036 0.0 0.00562500022 0.0900000036 0.0 0.00374999992 0.0900000036 0.0 0.00187499996 0.0900000036 0.0 0.0 0.0869999975 0.0 0.0 0.0839999989 0.0 0.0 0.0810000002 0.0 0.0 0.0780000016 0.0 0.0 0.075000003 0.0 0.0 0.0719999969 0.0 0.0 0.0689999983 0.0 0.0 0.0659999996 0.0 0.0 0.063000001 0.0 0.00240605418 0.0317476094 0.0 0.0132285897 0.0308372527 0.0 0.0114639541 0.0308285281 0.0 0.00970989279 0.0308664478 0.0 0.00796741433 0.030946292 0.0 0.00622726884 0.0310834199 0.0 0.00444168784 0.0313186944 0.0 0.0115238708 0.0404538177 0.0 0.0110589247 0.0399643853 0.0 0.0105802957 0.0394543298 0.0 0.0100896806 0.0389274582 0.0 0.00958756451 0.0383866653 0.0 0.00907252356 0.0378334895 0.0 0.00854044221 0.0372676216 0.0 0.00798357651 0.0366861634 0.0 0.00738931261 0.0360825956 0.0 0.00673822826 0.0354451761 0.0 0.00600026548 0.0347540006 0.0 0.00512524834 0.0339741185 0.0 0.00401390065 0.0330347866 0.0 0.000793838175 0.0438955426 0.0 0.000772442494 0.0426918976 0.0 0.000783006602 0.0414899141 0.0 0.000811753387 0.0402907245 0.0 0.000856733182 0.0390956625 0.0 0.000921554572 0.037906155 0.0 0.00101479655 0.0367233306 0.0 0.00115271518 0.0355465077 0.0 0.00136729016 0.0343677737 0.0 0.00172855402 0.0331514254 0.0 0.0133339632 0.0315873995 0.0 0.0134397261 0.0323022977 0.0 0.0135442559 0.032998085 0.0 0.0136464294 0.0336812399 0.0 0.013745822 0.0343553573 0.0 0.013842525 0.0350228548 0.0 0.0139368745 0.0356853306 0.0 0.0140292263 0.0363436677 0.0 0.0141198216 0.0369979888 0.0 0.0142087657 0.0376475193 0.0 0.0142960874 0.0382902175 0.0 0.0143820234 0.0389216021 0.0 0.0144678745 0.0395311117 0.0 0.0116815548 0.0316202343 0.0 0.011899055 0.0323765688 0.0 0.0121123437 0.033103589 0.0 0.0123189483 0.0338073969 0.0 0.0125182495 0.0344934613 0.0 0.0127108386 0.0351662561 0.0 0.0128977867 0.0358290039 0.0 0.0130801173 0.0364835784 0.0 0.0132585336 0.0371304527 0.0 0.0134333326 0.0377685912 0.0 0.0136044715 0.0383952036 0.0 0.0137717454 0.0390052013 0.0 0.0139350798 0.0395906046 0.0 0.0100520272 0.0317044854 0.0 0.010392216 0.0325013697 0.0 0.0107216369 0.0332574546 0.0 0.01103618 0.0339790136 0.0 0.0113357538 0.0346737355 0.0 0.0116223767 0.0353484601 0.0 0.011898635 0.0360082686 0.0 0.0121667851 0.0366562307 0.0 0.0124283545 0.03
[...]
<PointData>
<DataArray Name="displ" NumberOfComponents="3" type="Float32" format="ascii">-3.0270593306585448e-05 0.0002834738696702051 0.0 -6.083952731786015e-05 0.0002929595257666526 0.0 1.1785665651903584e-05 0.0004053277904135541 0.0 -4.37048828291164e-06 0.0003647171468674665 0.0 -1.8092991274986634e-05 0.00030128298086270474 0.0 -3.916387106458732e-05 0.000437911654797636 0.0 -4.054459648472231e-05 0.0004494464844921118 0.0 -3.254590430622835e-05 0.00041923210063726546 0.0 -3.552562364211592e-05 0.0003171695413770121 0.0 -6.2867103937019e-05 0.0003718485759430022 0.0 -5.8151864732705044e-05 0.0003776386612449546 0.0 -4.787669679976721e-05 0.0004319138058033154 0.0 -6.193491563763228e-06 0.0002041954791581123 0.0 -2.6915127700868406e-05 0.00021648279773809782 0.0 -5.281942153388009e-05 0.000543424370145689 0.0 -4.052231653353157e-05 0.0005306356408519963 0.0 -1.9356672836498924e-05 0.0003002845197505873 0.0 -2.0798029908312375e-05 0.00029824744562852645 0.0 -2.366344765011205e-05 0.0002974758848871638 0.0 -2.6092676021488802e-05 0.00029202637981227356 0.0 -2.848394265733169e-05 0.000290023568841678 0.0 -2.7118997793074222e-05 0.0002846552191005357 0.0 -3.170255242824426e-05 0.00028325259321323716 0.0 -3.042232891741534e-05 0.0002843976384601281 0.0 -3.069854030830445e-05 0.00028431829608114407 0.0 -3.137977002959001e-05 0.00028852505904908857 0.0 -3.0722513509420764e-05 0.00028562548553917263 0.0 -3.251721166149091e-05 0.00029205355661661816 0.0 -3.236742299693496e-05 0.00028969183636414365 0.0 -3.4254609202056843e-05 0.0002917197903802387 0.0 -2.943679377009296e-05 0.00029345103490125844 0.0 -3.2605165063993585e-05 0.0002909909649874586 0.0 -3.223886777868811e-05 0.00029195145219452237 0.0 -3.3078640547937714e-05 0.000294556235569665 0.0 -3.655412749566154e-05 0.00029780755858474414 0.0 -2.8015316454918502e-05 0.00029214174491577126 0.0 -2.9613908597341346e-05 0.00029288520366624847 0.0 -1.816261753278951e-05 0.0002944236828004838 0.0 -3.033369117877898e-05 0.00029843165051686747 0.0 -2.4161531393247155e-05 0.00029465706509656695 0.0 -2.1582475434013438e-05 0.0002955134500294423 0.0 -3.098296868065302e-05 0.0003034152065487113 0.0 -2.3545604661582606e-05 0.0003081993240843506 0.0 -1.615238698166047e-05 0.0002999976705708705 0.0 -4.598099856615902e-06 0.0003013001064667337 0.0 -1.2857610893812306e-05 0.0003187717323088725 0.0 -9.193322735469563e-06 0.00030864807269965794 0.0 -7.868358740532121e-06 0.0003100972986182739 0.0 -6.08314812549122e-06 0.0003236612007153592 0.0 -8.783366626200762e-06 0.0003278202574046215 0.0 -1.3171162750626787e-05 0.0003375375083039859 0.0 -5.231292584573453e-06 0.0003348700478652096 0.0 -1.2013124718631737e-05 0.0003497928995705306 0.0 -1.7051970588265354e-05 0.0003556890385390608 0.0 -1.4350100582912692e-05 0.0003651117338031407 0.0 -4.5892851323721025e-06 0.00036616472525434355 0.0 -1.4386495992765911e-05 0.0003681022295341552 0.0 -7.925855956872145e-06 0.0003627927558897327 0.0 -9.160226555001873e-06 0.00036863296847091417 0.0 -6.784669792530048e-06 0.00036480989871516675 0.0 -1.1094936628007654e-05 0.00036433813387923964 0.0 -6.823685237961103e-06 0.0003624267396363755 0.0 -7.483655384820761e-06 0.0003668716928559586 0.0 -5.965403549014393e-06 0.00036159784201338796 0.0 -7.153395589104852e-06 0.00036392623694760025 0.0 -5.607717211994988e-06 0.0003639802444989441 0.0 -5.620649181374249e-06 0.00036352698577360866 0.0 -8.63366321622348e-06 0.00036035392762516553 0.0 -7.256852158269763e-06 0.0003549392129673053 0.0 -8.17555786288051e-06 0.0003569222909506206 0.0 -9.122889767317925e-06 0.00035175205347456147 0.0 -1.1649193958514634e-05 0.00034751325674242125 0.0 -1.3814273875682892e-05 0.0003414958995287304 0.0 -1.7968965757137267e-05 0.0003342651159279771 0.0 -1.6442353080339715e-05 0.00032888841220088904 0.0 -1.991863049112201e-05 0.00032337488889053634 0.0 -1.6705484984186105e-05 0.0003155389018660956 0.0 -1.561842105218668e-05 0.00031342803264644206 0.0 -1.9035929179884436e-05 0.00030658824430490785 0.0 7.349163217177746e-06 0.0003704055954679742 0.0 -8.826487156025487e-06 0.0003946032763420765 0.0 -1.0609620384417495e-06 0.00038859962525625996 0.0 -5.808205946030944e-06 0.0004167103294259506 0.0 -6.439078249932631e-06 0.00041069607750277866 0.0 -6.7318942282620835e-06 0.00041732443339774267 0.0 -1.9527860552497844e-05 0.00041129145513257425 0.0 -1.1475991729094799e-05 0.000428451187980047 0.0 -1.54642050523315e-05 0.00042406682909681845 0.0 -2.5332433159736975e-05 0.00043080396096916975 0.0 -1.6983562790191684e-05 0.000433182344704261 0.0 -2.537015820780054e-05 0.0004326443474089417 0.0 -2.9479794112696028e-05 0.00043792767724110235 0.0 -3.214748267699982e-05 0.0004367615175989669 0.0 -3.014276317985231e-05 0.00043976712525725436 0.0 -2.6798873919255318e-05 0.00043175706857462716 0.0 -4.232770038708141e-05 0.0004459681230534763 0.0 -4.077246676567266e-05 0.0004388447816229956 0.0 -3.738646576156348e-05 0.0004398603290829619 0.0 -3.014193603732375e-05 0.00044488706366228013 0.0 -3.872276693369874e-05 0.00044037409468645024 0.0 -3.909763111871274e-05 0.00044804235852537936 0.0 -3.576104823623208e-05 0.0004378470833358698 0.0 -3.7172961896981665e-05 0.00044533052041696855 0.0 -3.4363254071254476e-05 0.00044098333033471796 0.0 -4.258452135414289e-05 0.0004367282312823735 0.0 -3.69727258826324e-05 0.0004445592167320596 0.0 -4.115788573175792e-05 0.0004457242207224779 0.0 -3.9870745979489236e-05 0.00044634058426628866 0.0 -3.817417433713209e-05 0.0004442224608570663 0.0 -4.059818488155953e-05 0.00044818978735002696 0.0 -3.944627311136238e-05 0.0004464432779070626 0.0 -3.9043123631192156e-05 0.00044627679422532934 0.0 -3.927614141877163e-05 0.0004405119071324176 0.0 -3.810693501146318e-05 0.00043433551741963903 0.0 -3.6410702226845444e-05 0.00042916093659460216 0.0 -3.467301833063752e-05 0.000424973418232696 0.0 -3.269571625680447e-05 0.00042166902339947464 0.0 -3.159805962053199e-05 0.0004171710646365324 0.0 -3.0251411354859744e-05 0.00041120512695512896 0.0 -2.8350359303959786e-05 0.00040475489565889694 0.0 -3.0122781318069444e-05 0.00040201319941817376 0.0 -2.5612441113999306e-05 0.00039402982826479204 0.0 -2.110603794620461e-05 0.000391845038208592 0.0 -2.0220484747776912e-05 0.00038373877416867335 0.0 -1.472169525500994e-05 0.00037795567697940376 0.0 -5.578198523126331e-06 0.00037471014697483285 0.0 -8.494758010992665e-06 0.00037116310840391327 0.0 -6.82360146007592e-06 0.00036975066324795115 0.0 -6.003563063411544e-05 0.00035887136147846405 0.0 -5.2441289657978946e-05 0.0003618433087039109 0.0 -6.19370670410281e-05 0.00034371818744601993 0.0 -5.340552424637594e-05 0.00034777653363370444 0.0 -5.565282654909913e-05 0.000331177547746474 0.0 -6.0049985563797125e-05 0.0003342397729256484 0.0 -6.166502528141821e-05 0.00031728111620679634 0.0 -5.8335622716822304e-05 0.00032273201645190597 0.0 -5.9166666021252196e-05 0.00030749018150750174 0.0 -5.130409651310566e-05 0.00030913662672092825 0.0 -4.524364401740562e-05 0.0003121503088758147 0.0 -4.67417781779808e-05 0.00030618021915499344 0.0 -5.2832256950787916e-05 0.00029864866094213977 0.0 -5.021360022342142e-05 0.00029847325866958646 0.0 -3.503436596747137e-05 0.0003005854136260854 0.0 -3.662311746311478e-05 0.0003003081576631066 0.0 -2.9825191118231477e-05 0.0002991603636156092 0.0 -3.1411471097094055e-05 0.0002857979207980461 0.0 -3.2226391452205e-05 0.0002907282402698887 0.0 -3.4113133133630954e-05 0.0002973970154113211 0.0 -3.433288368943422e-05 0.00030222667844889624 0.0 -3.689182974505627e-05 0.0003076532498999717 0.0 -3.684090365734432e-05 0.00031104483362827444 0.0 -3.858460446010936e-05 0.00031338701196314194 0.0 -4.0314897118244737e-05 0.00032002314728770217 0.0 -4.0992111214479856e-05 0.0003289474069088242 0.0 -3.670883922713083e-05 0.00032847098459965255 0.0 -4.401823011398696e-05 0.00034309747372463867 0.0 -4.407913365789995e-05 0.00034094857833411914 0.0 -4.863861312017957e-05 0.00035399937433199083 0.0 -4.93039532903242e-05 0.0003559389371418753 0.0 -5.744324698431743e-05 0.00036392982664495104 0.0 -5.7002683275636816e-05 0.000359596467663312 0.0 -5.987306453391728e-05 0.00036440934608856276 0.0 -6.288303576782654e-05 0.000365975731256957 0.0 -6.289249219450768e-05 0.00037422824376522236 0.0 -5.919442755926498e-05 0.0003752778717188394 0.0 -5.843343598164997e-05 0.00037023576334678797 0.0 -6.4097721955638e-05 0.0003719479384571957 0.0 -6.715604198982669e-05 0.00037671513365042223 0.0 -6.0355087977721795e-05 0.000370789718541573 0.0 -6.156148100010527e-05 0.0003726794650262754 0.0 -5.9202390219438203e-05 0.0003722829072181864 0.0 -5.6440776812138196e-05 0.0003710182370342876 0.0 -5.963766734447585e-05 0.00037480440824133826 0.0 -6.322325624756253e-05 0.0003689138390038943 0.0 -6.119424972540021e-05 0.00037746427771254197 0.0 -6.164030347198551e-05 0.00037155868325686355 0.0 -5.595578631780635e-05 0.00037257030453407007 0.0 -4.322883917080994e-05 0.00043367984384035997 0.0 -4.315753568253494e-05 0.00043352244732985386 0.0 -4.272541736434548e-05 0.00043504882560365575 0.0 -4.1479801775762394e-05 0.00043774758488194967 0.0 -4.026564997804055e-05 0.0004380973313859184 0.0 -4.070528992249234e-05 0.00044413208467952405 0.0 -3.889646211206115e-05 0.00044749124446908555 0.0 -2.87632892548139e-05 0.00044071090773352694 0.0 -3.6341830511810755e-05 0.0004410863342507002 0.0 -3.729836171289224e-05 0.000436543657473133 0.0 -3.933799751004467e-05 0.00043795290524804164 0.0 -5.085103401267295e-05 0.0004359988554305859 0.0 -4.948187107279468e-05 0.0004244981922571883 0.0 -4.86964560923758e-05 0.00041833812206462016 0.0 -5.67352968085228e-05 0.0004215045309850235 0.0 -5.6702305360658865e-05 0.0004135396749403801 0.0 -5.3815445979622636e-05 0.0004214256579092589 0.0 -5.863597867666865e-05 0.00041731669599986407 0.0 -5.750018106675345e-05 0.00040845241120050313 0.0 -5.593962369562785e-05 0.0004022442812069988 0.0 -6.228102765004471e-05 0.00039290918751075474 0.0 -7.265775704395088e-05 0.00037933081711171465 0.0 -4.9876375847072474e-05 0.0003825465636814245 0.0 -5.483918957262329e-05 0.00038231590956552895 0.0 -6.162123291649902e-05 0.0003782440711870254 0.0 -5.641125536164318e-05 0.00037529502030971847 0.0 -5.651367915947565e-05 0.0003793012938020571 0.0 -5.502909764942169e-05 0.0003967868318911413 0.0 -4.994359813206122e-05 0.0003876560027119217 0.0 -4.787530464861735e-05 0.0004004113430479734 0.0 -4.727968935721253e-05 0.0004000286516751488 0.0 -4.57040478167773e-05 0.00042299033654932946 0.0 -4.8656279176644255e-05 0.0004159568346984533 0.0 -4.575096832045206e-05 0.000421532755288039 0.0 -5.116764333897272e-05 0.000426800672905942 0.0 -1.433786530633613e-05 0.0002889644581842272 0.0 -1.5141123953253873e-05 0.00027785629549511833 0.0 -1.413631342734215e-05 0.00026659941819021305 0.0 -1.3840883607236395e-05 0.0002559328595421361 0.0 -9.912522646324154e-06 0.00024855694678819356 0.0 -8.180736107958618e-06 0.0002394742680382249 0.0 -8.047551543908651e-06 0.00023000991045755322 0.0 -8.472324071183477e-06 0.00022286710727696077 0.0 -6.453218555413649e-06 0.00021289003114697124 0.0 -7.792894682428296e-06 0.00020664653140986514 0.0 -9.705431000111056e-06 0.00020699392202577223 0.0 -1.0998104664160392e-05 0.0002084750826899539 0.0 -1.4722679317611132e-05 0.0002070477787634057 0.0 -1.4441721481242138e-05 0.00020611938385628055 0.0 -1.6735996369496818e-05 0.00020611957533042078 0.0 -1.9113370540299593e-05 0.00020578501332897515 0.0 -2.1252190258108285e-05 0.00020747966988944586 0.0 -2.0234384004350683e-05 0.0002060356661453108 0.0 -2.344155172781691e-05 0.0002077237136887193 0.0 -2.6011421665846204e-05 0.00020881916107802148 0.0 -2.6503064730900077e-05 0.00021262396242390693 0.0 -2.5363579777895656e-05 0.00021101579387886656 0.0 -2.4996804505413547e-05 0.00021449423899327815 0.0 -2.4932916174765218e-05 0.0002136372142805241 0.0 -2.6544598974869112e-05 0.0002210548402894445 0.0 -2.888099529113547e-05 0.00023354199473911446 0.0 -2.938110510057915e-05 0.00024601744687111944 0.0 -3.3171016537786634e-05 0.00025403972811057835 0.0 -3.8384658875492004e-05 0.000261541475934364 0.0 -3.7943173140771616e-05 0.00027074804107510845 0.0 -3.6003921628721074e-05 0.0002793974969547619 0.0 -3.543570349268602e-05 0.00029092907396180445 0.0 -3.4120807632153536e-05 0.00029979792406605705 0.0 -4.71710045502795e-05 0.0004430322629824135 0.0 -4.9182627834627424e-05 0.0004549716581739002 0.0 -4.636059090567961e-05 0.0004596539268216225 0.0 -4.990148376318017e-05 0.0004733309634961032 0.0 -5.0855687786238106e-05 0.0004825282227471215 0.0 -5.413827900757254e-05 0.0004931848378731611 0.0 -5.7749919453021416e-05 0.000503150886446065 0.0 -5.660230411118229e-05 0.0005158864413673222 0.0 -5.575581118856009e-05 0.00052367118788343 0.0 -5.567454307923379e-05 0.0005401717080419834 0.0 -5.4261652691992306e-05 0.0005384229490178572 0.0 -5.503188969093041e-05 0.0005330055621323019 0.0 -5.274525533266652e-05 0.0005332049291282317 0.0 -5.5013359408245e-05 0.000530929615028564 0.0 -4.963494533136442e-05 0.0005313703039523182 0.0 -5.138530863038572e-05 0.0005319430464144035 0.0 -4.783133940700538e-05 0.0005344608284108286 0.0 -4.632625683768935e-05 0.0005339181973478127 0.0 -4.595524725131659e-05 0.000536037439557685 0.0 -4.465423560672001e-05 0.0005358016354101915 0.0 -4.2251139947144204e-05 0.0005366285463958229 0.0 -4.27501948867208e-05 0.0005340498615181003 0.0 -4.141473656235495e-05 0.0005334705554385098 0.0 -3.9619106702276146e-05 0.0005321007371478244 0.0 -3.995661852962089e-05 0.0005225270675941557 0.0 -4.0519509831323856e-05 0.0005094675794462276 0.0 -3.9051333629186096e-05 0.0005035518768177878 0.0 -3.639513372391061e-05 0.0004942901970756532 0.0 -3.512002188596364e-05 0.0004855396519315901 0.0 -3.3126704361486875e-05 0.00047377139731169434 0.0 -3.7057639650090105e-05 0.00046119534105109326 0.0 -3.418740659200713e-05 0.0004463059592772313 0.0 -3.465920921441525e-05 0.00043221336298575796 0.0 -1.9786707480134426e-05 0.0003065696580619679 0.0 -2.848530548879254e-05 0.00028336915036284154 0.0 -2.8659149619050183e-05 0.0002895209814718357 0.0 -2.807907767668532e-05 0.0002888880863309252 0.0 -2.605334272867616e-05 0.0002965251867598627 0.0 -2.3963286476413308e-05 0.00029797752167595135 0.0 -2.3784106646262786e-05 0.0003030297420097621 0.0 -2.405777799089991e-05 0.0003016809685516977 0.0 -1.9445349949762413e-05 0.00030845620288005296 0.0 -2.5844979916194688e-05 0.00031026542733327445 0.0 -2.696376391352828e-05 0.0003149411131208874 0.0 -2.4829415010086395e-05 0.00031679013183792275 0.0 -2.556763319056958e-05 0.000318884947669631 0.0 -2.4153660813579082e-05 0.0003170320515578646 0.0 -2.596896705277282e-05 0.00031451293997954036 0.0 -2.612605092444507e-05 0.00031690223446094673 0.0 -2.4530949000983795e-05 0.00031446642036923986 0.0 -2.462711048946851e-05 0.00031447847468221707 0.0 -2.398815869498581e-05 0.00031226422269587685 0.0 -2.3594420494116606e-05 0.00031005046403170556 0.0 -4.3291341229019695e-06 0.00036157988131859184 0.0 -7.1149769796030545e-06 0.0003547073184848178 0.0 -8.162691486604859e-06 0.00035112316068823096 0.0 -9.246384974323152e-06 0.0003439529358659727 0.0 -1.4582051494120024e-05 0.0003396419854563814 0.0 -1.3243453800800142e-05 0.0003374384906814482 0.0 -1.8675202585066835e-05 0.00032811999078008014 0.0 -1.6992802265197186e-05 0.0003236111090754648 0.0 -1.857500113813648e-05 0.00031861651546147014 0.0 -2.092610760112188e-05 0.0003130172099625707 0.0 -3.106644488220797e-05 0.000286047425337108 0.0 -3.1023040280549266e-05 0.00028562154136974006 0.0 -3.179913387996336e-05 0.0002864625775212166 0.0 -3.151420825944317e-05 0.0002877435596141899 0.0 -3.294117514710408e-05 0.00029045040243258995 0.0 -2.9366125240035573e-05 0.000291620459070679 0.0 -3.284063973484844e-05 0.00028860347715136005 0.0 -2.764377393085712e-05 0.00029335497071300885 0.0 -3.3608738530262675e-05 0.0002922827829761205 0.0 -2.580837934308083e-05 0.0002918993354374303 0.0 -3.3229331304894716e-05 0.0002971530925346332 0.0 -3.45827460266262e-05 0.0002916075984605904 0.0 -3.4486175759019394e-05 0.0002956847868594644 0.0 -2.921397870030542e-05 0.00028848873572340163 0.0 -3.112406586183941e-05 0.00028807405995872893 0.0 -2.949331150275387e-05 0.0002918020049690527 0.0 -3.231149884398636e-05 0.00029367818324839743 0.0 -2.907984565321491e-05 0.0002896487257782128 0.0 -2.706211955822654e-05 0.0002932913833585742 0.0 -3.332477653003703e-05 0.0002948340005156462 0.0 -3.2027689628652724e-05 0.0002955893842027063 0.0 -3.3567645901479104e-05 0.0002931083741886206 0.0 -3.142273423644744e-05 0.0002955773784670614 0.0 -3.1051095391507415e-05 0.000292104284198995 0.0 -3.177545360868605e-05 0.000297673293996266 0.0 -3.0894229751226574e-05 0.0002954146965314002 0.0 -2.7945076377894173e-05 0.00029276387123227087 0.0 -2.917779555565936e-05 0.0002935583466641511 0.0 -2.9907367851440782e-05 0.000293315134331392 0.0 -2.9495019468507428e-05 0.0002959121936741268 0.0 -3.213108804821871e-05 0.00029530541278746046 0.0 -2.869107335877852e-05 0.0002957375650782496 0.0 -3.110535344973101e-05 0.0002927695567015327 0.0 -3.1980506184748666e-05 0.00029629805342434314 0.0 -3.295467045974323e-05 0.0002995709415943071 0.0 -3.118933229829102e-05 0.00029534686699149394 0.0 -3.109848256105644e-05 0.00029600810376667033 0.0 -2.677142283285278e-05 0.00029527621223039696 0.0 -2.903448557968899e-05 0.0002953667164484006 0.0 -2.6391432318632897e-05 0.0002994170149294006 0.0 -2.846612829780761e-05 0.0002980432509812604 0.0 -2.7812765348844834e-05 0.00029961136585026553 0.0 -2.8799307752152927e-05 0.0003032246735542989 0.0 -2.941521216658562e-05 0.0003008207483248616 0.0 -3.0848310144134936e-05 0.0003003049855856504 0.0 -3.0310072240929997e-05 0.0003040315897160818 0.0 -2.7878615720365284e-05 0.0002988442176264766 0.0 -2.7431754477210575e-05 0.00030083009609356445 0.0 -2.8374477791426387e-05 0.00030396004951067674 0.0 -2.6377678691862644e-05 0.0002935900121491821 0.0 -2.3729074505789412e-05 0.0002985110944758865 0.0 -2.887057226760619e-05 0.00029576866200504433 0.0 -2.7494063960894386e-05 0.00030294088350344594 0.0 -2.6899667616952113e-05 0.00030291046737345996 0.0 -2.7076972708130354e-05 0.0003053600888391036 0.0 -2.759960214178953e-05 0.0003031746408378636 0.0 -2.8793309496113423e-05 0.00030496600473953764 0.0 -3.0501299282477278e-05 0.00030482420175834206 0.0 -2.9746939268563483e-05 0.00030767079810178216 0.0 -2.8679060431277882e-05 0.0003071525143935908 0.0 -3.099644624883146e-05 0.00030843590295348566 0.0 -2.8795793323310345e-05 0.00030090225703996307 0.0 -3.2298055184274666e-05 0.00030546582474966265 0.0 -2.3476438028116193e-05 0.00029694034130035277 0.0 -3.1839669015364244e-05 0.00029846649541857693 0.0 -2.362757817570046e-05 0.00030556951818219117 0.0 -2.59129472027222e-05 0.00030915492109455557 0.0 -2.620143433334879e-05 0.00031008763283322117 0.0 -2.7478132967817722e-05 0.0003124881305775272 0.0 -2.7141859909038303e-05 0.00031222075241424944 0.0 -2.6385448858927093e-05 0.0003142127518957494 0.0 -2.4147532450095727e-05 0.0003127591142114856 0.0 -2.950508651923873e-05 0.0003117641153349799 0.0 -2.6177572186104514e-05 0.0003082433977536751 0.0 -2.6175066614184047e-05 0.0003136926039511219 0.0 -2.476323840751805e-05 0.00030432884358813953 0.0 -3.0234959669027583e-05 0.00030932707020246285 0.0 -2.0314195754107723e-05 0.00029672802772880505 0.0 -2.2015011842675297e-05 0.0003099750384605941 0.0 -1.88693079255064e-05 0.0003075928307011737 0.0 -1.5507175039363526e-05 0.00032083973000373716 0.0 -1.2049755939116413e-05 0.00032395651696249134 0.0 -1.1133507465991796e-05 0.0003242722695816452 0.0 -1.3933833575420324e-05 0.00033951577695042384 0.0 -7.640978393879506e-06 0.00034468282651878214 0.0 -9.45646168423289e-06 0.0003499044474525861 0.0 2.5182112869059356e-06 0.0003599379628059446 0.0 -1.525314894402054e-05 0.0003628209925079953 0.0 -1.8623155552499834e-05 0.0003158176215223927 0.0 -2.071780539965016e-05 0.0003227159965924654 0.0 -1.5475995640038026e-05 0.0003242855515724452 0.0 -2.1489674324244792e-05 0.00032991412197543117 0.0 -7.567734542024812