<?xml version="1.0" ?>
<VTKFile type="UnstructuredGrid" version="0.1" byte_order="LittleEndian">
<UnstructuredGrid>
<Piece NumberOfPoints="1500" NumberOfCells="1404">
<Points>
<DataArray type="Float32" format="ascii" NumberOfComponents="3">0.0149999997 0.0299999993 0.0 0.0149999997 0.0401869528 0.0 0.00973947905 0.0450999998 0.0 0.0 0.0450999998 0.0 0.0 0.0299999993 0.0 0.0149999997 0.0500130467 0.0 0.0149999997 0.0599999987 0.0 0.0 0.0599999987 0.0 0.0299999993 0.0299999993 0.0 0.0299999993 0.0450999998 0.0 0.0195885208 0.0450999998 0.0 0.0299999993 0.0599999987 0.0 0.0 0.0 0.0 0.0299999993 0.0 0.0 0.0299999993 0.0900000036 0.0 0.0 0.0900000036 0.0 0.00187499996 0.0299999993 0.0 0.00374999992 0.0299999993 0.0 0.00562500022 0.0299999993 0.0 0.00749999983 0.0299999993 0.0 0.00937500037 0.0299999993 0.0 0.0112500004 0.0299999993 0.0 0.0131249996 0.0299999993 0.0 0.0149999997 0.0309388097 0.0 0.0149999997 0.0315993913 0.0 0.0149999997 0.0322599746 0.0 0.0149999997 0.0329205543 0.0 0.0149999997 0.0335811377 0.0 0.0149999997 0.0342417173 0.0 0.0149999997 0.0349023007 0.0 0.0149999997 0.0355628803 0.0 0.0149999997 0.0362234637 0.0 0.0149999997 0.0368840471 0.0 0.0149999997 0.0375446267 0.0 0.0149999997 0.0382052101 0.0 0.0149999997 0.0388657898 0.0 0.0149999997 0.0395263731 0.0 0.0145518444 0.0401767567 0.0 0.0141046178 0.0402073525 0.0 0.0136620263 0.0402784906 0.0 0.0132277375 0.0403895788 0.0 0.0128053501 0.0405397005 0.0 0.012398364 0.0407276079 0.0 0.0120101506 0.0409517474 0.0 0.0116439275 0.0412102602 0.0 0.0113027301 0.0415010042 0.0 0.0109893847 0.0418215692 0.0 0.0107064871 0.042169299 0.0 0.0104563832 0.0425413139 0.0 0.0102411434 0.0429345332 0.0 0.010062553 0.0433456935 0.0 0.00992209092 0.0437713899 0.0 0.00982092042 0.0442080945 0.0 0.00975988153 0.0446521938 0.0 0.00910791382 0.0450999998 0.0 0.00847634859 0.0450999998 0.0 0.0078447843 0.0450999998 0.0 0.00721321953 0.0450999998 0.0 0.00658165431 0.0450999998 0.0 0.00595008954 0.0450999998 0.0 0.00531852478 0.0450999998 0.0 0.00468696002 0.0450999998 0.0 0.00405539526 0.0450999998 0.0 0.00342383026 0.0450999998 0.0 0.0027922655 0.0450999998 0.0 0.00216070074 0.0450999998 0.0 0.00152913586 0.0450999998 0.0 0.000897571037 0.0450999998 0.0 0.0 0.0438416675 0.0 0.0 0.0425833352 0.0 0.0 0.0413249992 0.0 0.0 0.0400666669 0.0 0.0 0.0388083346 0.0 0.0 0.0375499986 0.0 0.0 0.0362916663 0.0 0.0 0.035033334 0.0 0.0 0.0337750018 0.0 0.0 0.0325166658 0.0 0.0 0.0312583335 0.0 0.00975988153 0.0455478057 0.0 0.00982092042 0.045991905 0.0 0.00992209092 0.0464286096 0.0 0.010062553 0.046854306 0.0 0.0102411434 0.0472654663 0.0 0.0104563832 0.0476586856 0.0 0.0107064871 0.0480307005 0.0 0.0109893847 0.0483784303 0.0 0.0113027301 0.0486989953 0.0 0.0116439275 0.0489897393 0.0 0.0120101506 0.0492482521 0.0 0.012398364 0.0494723916 0.0 0.0128053501 0.049660299 0.0 0.0132277375 0.0498104207 0.0 0.0136620263 0.0499215089 0.0 0.0141046178 0.049992647 0.0 0.0145518444 0.0500232428 0.0 0.0149999997 0.0506606586 0.0 0.0149999997 0.0513082705 0.0 0.0149999997 0.0519558825 0.0 0.0149999997 0.0526034944 0.0 0.0149999997 0.05325111 0.0 0.0149999997 0.0538987219 0.0 0.0149999997 0.0545463338 0.0 0.0149999997 0.0551939458 0.0 0.0149999997 0.0558415577 0.0 0.0149999997 0.0564891733 0.0 0.0149999997 0.0571367852 0.0 0.0149999997 0.0577843972 0.0 0.0149999997 0.0584320091 0.0 0.0149999997 0.059079621 0.0 0.0131249996 0.0599999987 0.0 0.0112500004 0.0599999987 0.0 0.00937500037 0.0599999987 0.0 0.00749999983 0.0599999987 0.0 0.00562500022 0.0599999987 0.0 0.00374999992 0.0599999987 0.0 0.00187499996 0.0599999987 0.0 0.0 0.0587583333 0.0 0.0 0.057516668 0.0 0.0 0.0562749989 0.0 0.0 0.0550333336 0.0 0.0 0.0537916683 0.0 0.0 0.0525499992 0.0 0.0 0.0513083339 0.0 0.0 0.0500666648 0.0 0.0 0.0488249995 0.0 0.0 0.0475833341 0.0 0.0 0.0463416651 0.0 0.0195713751 0.0446894132 0.0 0.0195200555 0.0442816839 0.0 0.0194349196 0.0438796543 0.0 0.0193165597 0.0434861258 0.0 0.0191658027 0.0431038328 0.0 0.0189836938 0.0427354388 0.0 0.0187715068 0.0423835143 0.0 0.0185307153 0.0420505032 0.0 0.0182629973 0.0417387299 0.0 0.0179702155 0.0414503627 0.0 0.0176544115 0.041187413 0.0 0.0173177831 0.0409517065 0.0 0.0169626754 0.0407448858 0.0 0.0165915582 0.0405683964 0.0 0.0162070207 0.040423464 0.0 0.0158117376 0.0403110944 0.0 0.0154084601 0.0402320772 0.0 0.0168750007 0.0299999993 0.0 0.0187500007 0.0299999993 0.0 0.0206250008 0.0299999993 0.0 0.0225000009 0.0299999993 0.0 0.0243749991 0.0299999993 0.0 0.0262499992 0.0299999993 0.0 0.0281249993 0.0299999993 0.0 0.0299999993 0.0312583335 0.0 0.0299999993 0.0325166658 0.0 0.0299999993 0.0337750018 0.0 0.0299999993 0.035033334 0.0 0.0299999993 0.0362916663 0.0 0.0299999993 0.0375499986 0.0 0.0299999993 0.0388083346 0.0 0.0299999993 0.0400666669 0.0 0.0299999993 0.0413249992 0.0 0.0299999993 0.0425833352 0.0 0.0299999993 0.0438416675 0.0 0.0290404987 0.0450999998 0.0 0.0283653568 0.0450999998 0.0 0.0276902169 0.0450999998 0.0 0.0270150751 0.0450999998 0.0 0.0263399333 0.0450999998 0.0 0.0256647933 0.0450999998 0.0 0.0249896515 0.0450999998 0.0 0.0243145097 0.0450999998 0.0 0.0236393698 0.0450999998 0.0 0.0229642279 0.0450999998 0.0 0.0222890861 0.0450999998 0.0 0.0216139443 0.0450999998 0.0 0.0209388044 0.0450999998 0.0 0.0202636626 0.0450999998 0.0 0.0281249993 0.0599999987 0.0 0.0262499992 0.0599999987 0.0 0.0243749991 0.0599999987 0.0 0.0225000009 0.0599999987 0.0 0.0206250008 0.0599999987 0.0 0.0187500007 0.0599999987 0.0 0.0168750007 0.0599999987 0.0 0.0154084601 0.049967926 0.0 0.0158117376 0.0498889051 0.0 0.0162070207 0.0497765355 0.0 0.0165915582 0.0496316031 0.0 0.0169626754 0.0494551137 0.0 0.0173177831 0.049248293 0.0 0.0176544115 0.0490125902 0.0 0.0179702155 0.0487496369 0.0 0.0182629973 0.0484612696 0.0 0.0185307153 0.0481494963 0.0 0.0187715068 0.0478164889 0.0 0.0189836938 0.0474645607 0.0 0.0191658027 0.0470961705 0.0 0.0193165597 0.0467138775 0.0 0.0194349196 0.0463203453 0.0 0.0195200555 0.0459183156 0.0 0.0195713751 0.0455105864 0.0 0.0299999993 0.0463416651 0.0 0.0299999993 0.0475833341 0.0 0.0299999993 0.0488249995 0.0 0.0299999993 0.0500666648 0.0 0.0299999993 0.0513083339 0.0 0.0299999993 0.0525499992 0.0 0.0299999993 0.0537916683 0.0 0.0299999993 0.0550333336 0.0 0.0299999993 0.0562749989 0.0 0.0299999993 0.057516668 0.0 0.0299999993 0.0587583333 0.0 0.0 0.0270000007 0.0 0.0 0.0240000002 0.0 0.0 0.0209999997 0.0 0.0 0.0179999992 0.0 0.0 0.0149999997 0.0 0.0 0.0120000001 0.0 0.0 0.00899999961 0.0 0.0 0.00600000005 0.0 0.0 0.00300000003 0.0 0.00187499996 0.0 0.0 0.00374999992 0.0 0.0 0.00562500022 0.0 0.0 0.00749999983 0.0 0.0 0.00937500037 0.0 0.0 0.0112500004 0.0 0.0 0.0131249996 0.0 0.0 0.0149999997 0.0 0.0 0.0168750007 0.0 0.0 0.0187500007 0.0 0.0 0.0206250008 0.0 0.0 0.0225000009 0.0 0.0 0.0243749991 0.0 0.0 0.0262499992 0.0 0.0 0.0281249993 0.0 0.0 0.0299999993 0.00300000003 0.0 0.0299999993 0.00600000005 0.0 0.0299999993 0.00899999961 0.0 0.0299999993 0.0120000001 0.0 0.0299999993 0.0149999997 0.0 0.0299999993 0.0179999992 0.0 0.0299999993 0.0209999997 0.0 0.0299999993 0.0240000002 0.0 0.0299999993 0.0270000007 0.0 0.0299999993 0.063000001 0.0 0.0299999993 0.0659999996 0.0 0.0299999993 0.0689999983 0.0 0.0299999993 0.0719999969 0.0 0.0299999993 0.075000003 0.0 0.0299999993 0.0780000016 0.0 0.0299999993 0.0810000002 0.0 0.0299999993 0.0839999989 0.0 0.0299999993 0.0869999975 0.0 0.0281249993 0.0900000036 0.0 0.0262499992 0.0900000036 0.0 0.0243749991 0.0900000036 0.0 0.0225000009 0.0900000036 0.0 0.0206250008 0.0900000036 0.0 0.0187500007 0.0900000036 0.0 0.0168750007 0.0900000036 0.0 0.0149999997 0.0900000036 0.0 0.0131249996 0.0900000036 0.0 0.0112500004 0.0900000036 0.0 0.00937500037 0.0900000036 0.0 0.00749999983 0.0900000036 0.0 0.00562500022 0.0900000036 0.0 0.00374999992 0.0900000036 0.0 0.00187499996 0.0900000036 0.0 0.0 0.0869999975 0.0 0.0 0.0839999989 0.0 0.0 0.0810000002 0.0 0.0 0.0780000016 0.0 0.0 0.075000003 0.0 0.0 0.0719999969 0.0 0.0 0.0689999983 0.0 0.0 0.0659999996 0.0 0.0 0.063000001 0.0 0.00240605418 0.0317476094 0.0 0.0132285897 0.0308372527 0.0 0.0114639541 0.0308285281 0.0 0.00970989279 0.0308664478 0.0 0.00796741433 0.030946292 0.0 0.00622726884 0.0310834199 0.0 0.00444168784 0.0313186944 0.0 0.0115238708 0.0404538177 0.0 0.0110589247 0.0399643853 0.0 0.0105802957 0.0394543298 0.0 0.0100896806 0.0389274582 0.0 0.00958756451 0.0383866653 0.0 0.00907252356 0.0378334895 0.0 0.00854044221 0.0372676216 0.0 0.00798357651 0.0366861634 0.0 0.00738931261 0.0360825956 0.0 0.00673822826 0.0354451761 0.0 0.00600026548 0.0347540006 0.0 0.00512524834 0.0339741185 0.0 0.00401390065 0.0330347866 0.0 0.000793838175 0.0438955426 0.0 0.000772442494 0.0426918976 0.0 0.000783006602 0.0414899141 0.0 0.000811753387 0.0402907245 0.0 0.000856733182 0.0390956625 0.0 0.000921554572 0.037906155 0.0 0.00101479655 0.0367233306 0.0 0.00115271518 0.0355465077 0.0 0.00136729016 0.0343677737 0.0 0.00172855402 0.0331514254 0.0 0.0133339632 0.0315873995 0.0 0.0134397261 0.0323022977 0.0 0.0135442559 0.032998085 0.0 0.0136464294 0.0336812399 0.0 0.013745822 0.0343553573 0.0 0.013842525 0.0350228548 0.0 0.0139368745 0.0356853306 0.0 0.0140292263 0.0363436677 0.0 0.0141198216 0.0369979888 0.0 0.0142087657 0.0376475193 0.0 0.0142960874 0.0382902175 0.0 0.0143820234 0.0389216021 0.0 0.0144678745 0.0395311117 0.0 0.0116815548 0.0316202343 0.0 0.011899055 0.0323765688 0.0 0.0121123437 0.033103589 0.0 0.0123189483 0.0338073969 0.0 0.0125182495 0.0344934613 0.0 0.0127108386 0.0351662561 0.0 0.0128977867 0.0358290039 0.0 0.0130801173 0.0364835784 0.0 0.0132585336 0.0371304527 0.0 0.0134333326 0.0377685912 0.0 0.0136044715 0.0383952036 0.0 0.0137717454 0.0390052013 0.0 0.0139350798 0.0395906046 0.0 0.0100520272 0.0317044854 0.0 0.010392216 0.0325013697 0.0 0.0107216369 0.0332574546 0.0 0.01103618 0.0339790136 0.0 0.0113357538 0.0346737355 0.0 0.0116223767 0.0353484601 0.0 0.011898635 0.0360082686 0.0 0.0121667851 0.0366562307 0.0 0.0124283545 0.03
[...]
<PointData>
<DataArray Name="displ" NumberOfComponents="3" type="Float32" format="ascii">-2.9266523536151928e-05 0.00041719398823466977 0.0 -4.3244299209661e-05 0.00043218894919353434 0.0 3.366118117928488e-05 0.0005244084516540508 0.0 3.4607738918500867e-06 0.0005327443485580676 0.0 -1.8824106029406166e-05 0.0004470529452973291 0.0 -4.852656309131139e-05 0.0006544867632418894 0.0 -4.999103125322635e-05 0.0006585843184732747 0.0 -3.832069509850879e-05 0.0006163652844357906 0.0 -4.028841991752458e-05 0.00046541900680926627 0.0 -8.04103194779928e-05 0.0005462676384348717 0.0 -7.967414204702316e-05 0.0005416868958229591 0.0 -5.9492827792806665e-05 0.0006290246921895286 0.0 2.122419370115609e-06 0.00030219753454482944 0.0 -2.664623426557423e-05 0.00031513961050661394 0.0 -7.452521607546408e-05 0.0007844733325378215 0.0 -4.621411226970984e-05 0.0007709358094225582 0.0 -2.118190826507844e-05 0.0004457532681793388 0.0 -2.3168013710747394e-05 0.00044452718634844596 0.0 -2.4589614446508133e-05 0.00044216815569505586 0.0 -2.7711289167451275e-05 0.00043560396129021844 0.0 -2.878891769128572e-05 0.0004290908944530116 0.0 -2.7847331767354674e-05 0.0004222003665290853 0.0 -3.1519548251268075e-05 0.00041887161888843006 0.0 -3.1251671693464246e-05 0.00042429906272784044 0.0 -3.0369691844834873e-05 0.00042086629626408753 0.0 -3.2197049156238084e-05 0.0004250084375123136 0.0 -3.284811800165757e-05 0.0004249800966194842 0.0 -3.370410354252231e-05 0.00042781798233377583 0.0 -3.274356902406702e-05 0.00042915466047943086 0.0 -3.660708522080124e-05 0.00043023436550152335 0.0 -3.0312537775715175e-05 0.0004276975702541322 0.0 -3.549628045590546e-05 0.0004299976523754495 0.0 -3.493320103389365e-05 0.00043105112086377163 0.0 -3.6622520377243076e-05 0.0004256096481409465 0.0 -3.787706341638684e-05 0.0004314959062639857 0.0 -3.0929701383617006e-05 0.0004310846220948816 0.0 -3.795643712032399e-05 0.00042380649823012294 0.0 -1.742659483385642e-05 0.00042789864518146735 0.0 -3.727228227877637e-05 0.0004394881148140942 0.0 -1.4944281410861686e-05 0.0004271754496466647 0.0 -2.563036870198269e-05 0.00043276957362204787 0.0 -1.4600108791394005e-05 0.0004312817639829988 0.0 -1.9594670862020693e-06 0.00043973592200785783 0.0 -1.2173253136183893e-05 0.00043121244205127546 0.0 -1.0864877773660338e-05 0.0004421872718287537 0.0 -3.482226008010498e-06 0.0004565308230556108 0.0 -9.507744428604835e-07 0.00045484532492911096 0.0 -5.69269732006042e-06 0.00046346053140173404 0.0 1.4637217950989007e-06 0.00046379663117713285 0.0 -1.346859983095548e-05 0.00048674984589168257 0.0 8.127805078001345e-07 0.0004724266902005309 0.0 2.0630423405550953e-06 0.0004672160465152247 0.0 -6.157676343144308e-06 0.0005035591963759839 0.0 -4.880992298600153e-06 0.0005308122217893164 0.0 -1.4846233613893477e-05 0.0005357399520404154 0.0 -4.461124319834587e-06 0.0005356051570380827 0.0 -7.841573547966919e-06 0.0005386352024453455 0.0 1.0808702451624802e-06 0.0005309319786737468 0.0 -3.5111091537037584e-06 0.0005380155974787446 0.0 -1.2180351828944615e-06 0.0005294003219385126 0.0 -6.948286169358606e-06 0.0005364370110753431 0.0 -1.3675543997937394e-06 0.0005304066335750307 0.0 -1.7708582518503274e-06 0.0005328105259034378 0.0 2.3803269665899035e-06 0.0005306768541579943 0.0 -3.8418404443722496e-07 0.0005318912539442333 0.0 1.8097715311940213e-06 0.0005312012387241003 0.0 2.4559806162655345e-06 0.0005324137672581598 0.0 -4.6804721028298503e-07 0.000530587649436496 0.0 2.031048525603391e-06 0.0005247496480467245 0.0 2.780478214889178e-07 0.0005218345489511516 0.0 -3.6264379118443145e-06 0.0005122356551187976 0.0 -4.4094867918873965e-06 0.0005083260042428962 0.0 -1.1189181617948776e-05 0.0004975170844034755 0.0 -1.6879117787176628e-05 0.0004932586102521997 0.0 -1.559224549428449e-05 0.0004838521466319332 0.0 -1.9452040938302542e-05 0.00047689030214460165 0.0 -1.513897324964048e-05 0.00046604967234046435 0.0 -1.6692841267777854e-05 0.0004614847785440537 0.0 -1.952808657523866e-05 0.0004525525110030867 0.0 3.772597298107471e-05 0.0006085647747951734 0.0 3.511631156403301e-07 0.0005968673606647997 0.0 1.2390076520464215e-05 0.0005867671502347133 0.0 -2.460455704836933e-07 0.000607533579510725 0.0 1.9768492501823505e-06 0.000613280222193374 0.0 -4.468127154910495e-06 0.0006066354647823812 0.0 -1.186086480731331e-05 0.0006136079051779047 0.0 -1.2996702086725799e-05 0.0006192129472129492 0.0 -1.0634764880217923e-05 0.0006271996853541639 0.0 -2.3878071252058416e-05 0.0006290916331578397 0.0 -2.3818585841938334e-05 0.0006271506837780614 0.0 -3.211390987766239e-05 0.0006356008529211242 0.0 -3.0042406540338236e-05 0.0006375160566535425 0.0 -3.8959931599271e-05 0.0006406292459801457 0.0 -3.428725337964518e-05 0.0006472084093328234 0.0 -4.566790481678052e-05 0.0006403745993432553 0.0 -4.3662127490254834e-05 0.0006502111096688647 0.0 -5.032592123035681e-05 0.0006420258083560844 0.0 -4.5353634863188005e-05 0.0006469773661931011 0.0 -3.795607692203692e-05 0.0006475539588118045 0.0 -4.7076512693967584e-05 0.0006451340030680264 0.0 -4.825923480913711e-05 0.0006530316535977876 0.0 -4.465470646472496e-05 0.0006457167529947742 0.0 -4.4826406030786454e-05 0.0006500833895719246 0.0 -4.631164025765991e-05 0.0006499090762382486 0.0 -4.935149758501775e-05 0.0006475449118642872 0.0 -4.5101198228609465e-05 0.0006517928595755634 0.0 -4.8590673155061824e-05 0.0006525758147287303 0.0 -4.983634185876306e-05 0.0006523646822876619 0.0 -4.780536651466874e-05 0.0006551905699617238 0.0 -5.00211552224032e-05 0.0006574379552345572 0.0 -4.897616055568023e-05 0.0006567781672887423 0.0 -4.8378385089969756e-05 0.0006517543124046948 0.0 -4.914422867865625e-05 0.0006451163777958537 0.0 -4.5881505046734296e-05 0.0006359805437011716 0.0 -4.2843779929109126e-05 0.0006292463647943945 0.0 -4.1288891513600975e-05 0.0006235826040999922 0.0 -3.977821646210219e-05 0.0006183083684032078 0.0 -3.627488494472565e-05 0.0006086811042464033 0.0 -3.393562104824238e-05 0.0006018798229594987 0.0 -3.439477314565864e-05 0.0005937995191855973 0.0 -3.085888997302604e-05 0.000586356810394245 0.0 -2.9293926029623814e-05 0.0005780587857423647 0.0 -2.2462860533540363e-05 0.0005709993438552864 0.0 -2.2276722011383343e-05 0.0005605274180703147 0.0 -1.3626836667289783e-05 0.0005536399703786499 0.0 -5.599121251682592e-06 0.0005517772766512489 0.0 -2.2227549632082985e-06 0.0005439982215132928 0.0 -3.7633774960354533e-06 0.0005360906644568886 0.0 -7.325306605917762e-05 0.0005296130689685881 0.0 -6.266354663313354e-05 0.0005301360118675942 0.0 -8.713542514141064e-05 0.0004963827475386039 0.0 -7.994404916225048e-05 0.0005007788693768333 0.0 -7.200791410997493e-05 0.0004801464468828005 0.0 -8.284460692191326e-05 0.0004753613684081018 0.0 -7.371635270712994e-05 0.0004651574057361743 0.0 -6.609028223234738e-05 0.00047473048867462375 0.0 -6.688387248110433e-05 0.0004495858998848436 0.0 -6.56630179446887e-05 0.0004548023108771689 0.0 -5.810797921080001e-05 0.00045316404129436803 0.0 -5.7951763329899304e-05 0.0004459561202768482 0.0 -6.442348030456071e-05 0.0004296034430320033 0.0 -5.367030293276458e-05 0.00043671924897116364 0.0 -4.034051971477531e-05 0.0004400264266888813 0.0 -4.728519683779125e-05 0.0004352214675194848 0.0 -4.07001924553108e-05 0.0004293622699917443 0.0 -3.1622458555723635e-05 0.0004228238141036344 0.0 -3.2945081023032044e-05 0.00043063729186947736 0.0 -3.408117982467323e-05 0.00044174053617695086 0.0 -3.629417297211379e-05 0.0004508156958669372 0.0 -3.77858885070102e-05 0.0004555062606141454 0.0 -3.880295370218164e-05 0.000460079452632314 0.0 -4.245630123492546e-05 0.00046385418865050676 0.0 -4.6493895138968974e-05 0.00047399932304816814 0.0 -4.864455859727408e-05 0.00048240521332090373 0.0 -4.448858394194341e-05 0.0004809337155301713 0.0 -5.3309972873828875e-05 0.0004994804949334255 0.0 -5.384494007954834e-05 0.0005008965089738992 0.0 -5.741753429321903e-05 0.0005126072328341858 0.0 -6.108757428426801e-05 0.0005238708120553193 0.0 -6.766020631075239e-05 0.0005346542062067491 0.0 -6.995670605903048e-05 0.0005270014549569383 0.0 -7.311115711399111e-05 0.0005294479327219593 0.0 -7.916738721204695e-05 0.0005356189458123939 0.0 -7.960431025616473e-05 0.0005494786667491016 0.0 -7.578017476942647e-05 0.0005463107249907717 0.0 -7.607388585700279e-05 0.0005423355223851627 0.0 -7.876656569259808e-05 0.0005419560150538048 0.0 -8.307682326329963e-05 0.0005459951657195102 0.0 -7.67555005125251e-05 0.0005405304943954766 0.0 -7.638450215789741e-05 0.0005438254937729727 0.0 -7.27446705103018e-05 0.0005408206075148971 0.0 -7.347232944895862e-05 0.0005399569045933458 0.0 -7.450488151068838e-05 0.0005431789989876362 0.0 -8.140483020634633e-05 0.0005424694283195485 0.0 -7.585802833465074e-05 0.0005447001513724887 0.0 -7.890612511854468e-05 0.0005398060244505477 0.0 -7.296521236448536e-05 0.0005439594437870387 0.0 -5.860023442142877e-05 0.0006297004746702811 0.0 -5.520623167447176e-05 0.0006304317508557548 0.0 -5.509230339214149e-05 0.0006330069427775088 0.0 -5.3149529162545876e-05 0.0006363317948094409 0.0 -5.059632754473208e-05 0.0006410919915918319 0.0 -5.020223928218159e-05 0.0006496138220031126 0.0 -4.983626864775748e-05 0.0006551028554388227 0.0 -3.804617367379427e-05 0.0006478715809051737 0.0 -4.927905549784749e-05 0.0006446952131110872 0.0 -5.2191182289985565e-05 0.0006430411570966266 0.0 -5.099297370302146e-05 0.0006344519846578917 0.0 -6.351744138970675e-05 0.0006371061192801951 0.0 -7.29672865528161e-05 0.0006296367977137366 0.0 -5.9840679427879554e-05 0.0006295240583719762 0.0 -6.722522568439613e-05 0.0006259256102726509 0.0 -6.64953370895054e-05 0.0006102016889265051 0.0 -7.372317486398485e-05 0.0006174663786503887 0.0 -7.09143179953925e-05 0.0006085985680543676 0.0 -7.140471847707712e-05 0.0005972738318455999 0.0 -7.336279628471982e-05 0.0005949933113051461 0.0 -8.467043277106778e-05 0.0005869482474418009 0.0 -8.378582647338871e-05 0.0005601944143066844 0.0 -6.979770836359709e-05 0.0005645884384096012 0.0 -7.739448490212985e-05 0.0005481888756930242 0.0 -7.824814548514929e-05 0.0005504787214790115 0.0 -7.789158534979678e-05 0.0005540700895513906 0.0 -7.61423716715331e-05 0.0005548041886673574 0.0 -7.181559293019958e-05 0.0005802850227403235 0.0 -6.644734779722803e-05 0.000572945231815273 0.0 -6.4455325730485e-05 0.0005844338755253774 0.0 -6.340493966405106e-05 0.0005844873517378919 0.0 -6.29323613069867e-05 0.0006028923827147025 0.0 -6.304043820697614e-05 0.0006020416671715092 0.0 -5.873405525477929e-05 0.0006168995557618759 0.0 -6.326141684677677e-05 0.0006211750127432683 0.0 -1.6376908531897633e-05 0.00042782693918675156 0.0 -1.7111191053768732e-05 0.0004129598622743356 0.0 -1.5212875512270874e-05 0.00039592729071237753 0.0 -1.2902254555567618e-05 0.0003811251530790363 0.0 -8.105702316622759e-06 0.00036859687810726654 0.0 -5.349948949548426e-06 0.00035294549299689327 0.0 -3.6080741674268625e-06 0.0003398113443642583 0.0 -1.0979045791637328e-06 0.00032675392851276753 0.0 1.6441242858451893e-06 0.0003138622674633421 0.0 3.870915972262069e-07 0.000304368815485877 0.0 -1.7644850003518651e-06 0.00030616616616199743 0.0 -3.3327462060547446e-06 0.00030815463975821173 0.0 -7.085267129530093e-06 0.00030751056633079453 0.0 -8.513521284937221e-06 0.0003063857115399529 0.0 -1.0670916065912846e-05 0.00030628983579604875 0.0 -1.4299975216334573e-05 0.00030578046147843583 0.0 -1.5720108605949966e-05 0.0003069779286460881 0.0 -1.5724613420806714e-05 0.00030508263208523575 0.0 -1.8633823164710555e-05 0.0003082935572770228 0.0 -2.1100748766094434e-05 0.0003098984464342017 0.0 -2.2330877027874045e-05 0.00031251720676539653 0.0 -2.4199388737140832e-05 0.0003127367603013476 0.0 -2.3630306304375858e-05 0.0003162663386596721 0.0 -2.541358797902736e-05 0.0003163358913719448 0.0 -2.63704070549739e-05 0.0003275810713691426 0.0 -2.906615154838122e-05 0.0003414951553228326 0.0 -3.152796332556493e-05 0.0003570543211437769 0.0 -3.643519386137529e-05 0.00037045513806349906 0.0 -3.977084987457507e-05 0.00038704621746674074 0.0 -3.9805492946473655e-05 0.00040197734199318196 0.0 -3.77656626853726e-05 0.0004167234444881689 0.0 -3.5953570953249326e-05 0.0004317098609059352 0.0 -3.77594996363299e-05 0.00044847837437668464 0.0 -5.861966098826701e-05 0.0006470189393338737 0.0 -6.030405939847529e-05 0.0006654517353099977 0.0 -5.8642546713941634e-05 0.0006743459115042674 0.0 -6.295658598578364e-05 0.0006952128632144839 0.0 -6.411560678181389e-05 0.0007069284772155585 0.0 -7.080555676738873e-05 0.0007201324719826326 0.0 -7.30207028831317e-05 0.0007318663719036585 0.0 -7.200507367710668e-05 0.0007511325317253971 0.0 -7.454902000605995e-05 0.0007628058476802607 0.0 -7.752377757501946e-05 0.000779228582326861 0.0 -7.364504141519993e-05 0.000779365887987249 0.0 -7.28930574481926e-05 0.000778044457344928 0.0 -6.881255871538146e-05 0.0007782748251852338 0.0 -7.065408163884105e-05 0.0007790647389098385 0.0 -6.449772367702063e-05 0.000778494200255896 0.0 -6.491677517457506e-05 0.0007800530553404827 0.0 -6.0316337639107946e-05 0.0007784740474447108 0.0 -5.6660478387129785e-05 0.000778770038524442 0.0 -5.710806526079758e-05 0.0007792555013156028 0.0 -5.389950302979052e-05 0.0007778346989696655 0.0 -5.191375276655823e-05 0.0007781728161005369 0.0 -5.1334379569673056e-05 0.0007747829715589192 0.0 -4.915896527194645e-05 0.0007746765618489907 0.0 -4.5864523076044366e-05 0.0007750949360549335 0.0 -4.570260742615038e-05 0.000761139572325789 0.0 -4.692602145761587e-05 0.0007417809254948207 0.0 -4.587484820344027e-05 0.0007311077227460993 0.0 -4.3938219499213115e-05 0.000717085562872445 0.0 -4.256924518355563e-05 0.0007003364664090592 0.0 -3.9551251187507576e-05 0.0006850698257364467 0.0 -4.387996318544158e-05 0.0006690295415997157 0.0 -4.0303034830193265e-05 0.0006507849128373406 0.0 -4.0488875173309415e-05 0.0006340057574980257 0.0 -2.1063681475607205e-05 0.00045461182473605885 0.0 -2.9089156374999797e-05 0.0004203570653048266 0.0 -2.96583580724077e-05 0.000425562285605797 0.0 -2.9683286789856488e-05 0.00043044611081993853 0.0 -2.703656518432622e-05 0.0004409617173069129 0.0 -2.6365035118872897e-05 0.0004449403016058235 0.0 -2.546212245434895e-05 0.0004489829023376723 0.0 -1.9588665895278157e-05 0.00044667868188867155 0.0 -1.640062565593892e-05 0.000448826753078922 0.0 -2.7042030979593602e-05 0.0004550228588117447 0.0 -2.743809625280207e-05 0.0004581230035780112 0.0 -2.6329780054178255e-05 0.00046449165284163317 0.0 -2.6816569436713503e-05 0.0004679122901778593 0.0 -2.4097043954106075e-05 0.000470028019097067 0.0 -2.7541073675742976e-05 0.0004677226266687819 0.0 -2.6323210259053283e-05 0.0004695241338466115 0.0 -2.616581359429137e-05 0.0004685303787861965 0.0 -2.5934746424374643e-05 0.00046488422337368597 0.0 -2.4489180800388487e-05 0.000462181492631642 0.0 -2.5765373021253563e-05 0.0004598891452112685 0.0 3.4478050082642855e-06 0.0005270929429249012 0.0 -1.0403711229416813e-06 0.0005189531201295249 0.0 -7.5892812746828e-07 0.0005140082994760229 0.0 -4.93745516849771e-06 0.0005049114108991446 0.0 -1.0761602502523291e-05 0.0004975036703676908 0.0 -1.1220864386597138e-05 0.0004928018304589006 0.0 -1.779329472532559e-05 0.00048153387222865435 0.0 -1.6500930736848925e-05 0.0004786080253425883 0.0 -1.906848099152269e-05 0.0004711069565691833 0.0 -2.167058065219241e-05 0.0004629387297044188 0.0 -3.148646563261424e-05 0.0004244768477191164 0.0 -3.156122908307507e-05 0.0004254950383373336 0.0 -3.2173006553976e-05 0.0004245157940432378 0.0 -3.0710773152854736e-05 0.0004279937028143527 0.0 -3.319414931229383e-05 0.00042631697163844525 0.0 -2.989210932756321e-05 0.0004316572841516724 0.0 -3.3955474523868566e-05 0.00042766725270707235 0.0 -2.907326851151865e-05 0.0004315668991439208 0.0 -3.771512092898335e-05 0.0004313755143191598 0.0 -2.6558926114570024e-05 0.000430736137424356 0.0 -3.670268722599957e-05 0.000434585464825698 0.0 -3.300735122547042e-05 0.00043070698806395655 0.0 -3.5583934414461105e-05 0.00043479291201717324 0.0 -2.9726999571757898e-05 0.00042808968830000433 0.0 -3.1510748022526124e-05 0.0004262238689593812 0.0 -3.1019336495224875e-05 0.00042991303667966606 0.0 -3.0497137896255483e-05 0.00043160055342642185 0.0 -2.882920417111705e-05 0.0004315259907678334 0.0 -3.115198288370897e-05 0.0004309900201338831 0.0 -3.250868251187799e-05 0.000432894321151639 0.0 -3.1978454447173995e-05 0.00043420710698616357 0.0 -3.33906767502292e-05 0.0004280156296268034 0.0 -3.422614217022945e-05 0.00043288297924887756 0.0 -2.8331957892721255e-05 0.000430123503820561 0.0 -3.5878945375827485e-05 0.00043241151024047954 0.0 -3.3037352122224576e-05 0.000430006685474632 0.0 -2.8170118068562807e-05 0.00043378443024486805 0.0 -3.0034435638361262e-05 0.0004331041604434873 0.0 -2.9827554467125602e-05 0.00043630244991006603 0.0 -3.108880056852641e-05 0.0004341646186719816 0.0 -3.3635525276864e-05 0.00043727343994566395 0.0 -2.803745456654559e-05 0.00043627627560111266 0.0 -3.495446100781659e-05 0.00043447472248768975 0.0 -3.3775584388000265e-05 0.0004365407380393328 0.0 -3.319806673262162e-05 0.00043844490756164104 0.0 -3.1686335964991254e-05 0.00043629753383250596 0.0 -3.257216940791911e-05 0.0004333868182537256 0.0 -2.9082555979668744e-05 0.00043186756638347636 0.0 -3.1693297110376865e-05 0.00043263083024944925 0.0 -2.9175881275198607e-05 0.0004435147002294892 0.0 -2.9519346724749145e-05 0.0004434332745501391 0.0 -2.9124197761374562e-05 0.00044476722619153137 0.0 -2.974779710871567e-05 0.0004467074935056025 0.0 -2.844568550748666e-05 0.0004451158339453946 0.0 -3.344749387380576e-05 0.00044463733830054275 0.0 -2.974633280450515e-05 0.00044560528143139047 0.0 -2.828486336537093e-05 0.00044055185008199494 0.0 -2.7746678225429816e-05 0.00044010140370890255 0.0 -3.275533352674345e-05 0.00044031284828519225 0.0 -2.5698272109363755e-05 0.0004340407236962316 0.0 -2.879824571245241e-05 0.0004349048750389813 0.0 -2.37829577151615e-05 0.0004315545911140635 0.0 -2.8114773685058425e-05 0.00044898407358092974 0.0 -2.7652866992756124e-05 0.0004496153210714442 0.0 -2.902695306514876e-05 0.00045345748604407407 0.0 -2.9137437466438877e-05 0.0004515379412309984 0.0 -3.0069996323213493e-05 0.00045270867065922023 0.0 -3.063166189245572e-05 0.00045263254822244824 0.0 -2.8096239771792932e-05 0.00045330683505706023 0.0 -3.1892455651592194e-05 0.000451969288950509 0.0 -3.415483883627052e-05 0.000450305038908465 0.0 -2.7251187383358254e-05 0.000443832004786738 0.0 -3.21208221042274e-05 0.00044422794208680614 0.0 -2.3506386484847288e-05 0.00043498114015367434 0.0 -3.499784018251092e-05 0.0004390930883129099 0.0 -2.7142683662837312e-05 0.0004551105860333733 0.0 -2.606601486650996e-05 0.00045858201367585246 0.0 -2.709114605833651e-05 0.00046226352634732963 0.0 -2.7584101323548593e-05 0.00046117940890753645 0.0 -2.9442858322355645e-05 0.0004630902709228201 0.0 -2.7211596537026273e-05 0.0004626604724596584 0.0 -2.9033930579584295e-05 0.0004627251856015069 0.0 -2.7995692189990363e-05 0.00045929278203475036 0.0 -2.943513592294911e-05 0.00045947974855449237 0.0 -2.750262485784422e-05 0.0004568223896219562 0.0 -2.5911063171400114e-05 0.00044637200953860656 0.0 -2.925911886072794e-05 0.0004476883592239257 0.0 -2.42472342436251e-05 0.00043999387981693677 0.0 -1.609438010546927e-05 0.0004487290904109401 0.0 -1.2011760955633323e-05 0.0004532838846079715 0.0 -1.3590406713189987e-05 0.00046721102373345773 0.0 -3.9746925737098385e-06 0.0004664728619514712 0.0 -4.942488555756728e-06 0.0004766022901389306 0.0 -2.568812385179121e-06 0.0004791515760013204 0.0 -5.564197207904607e-06 0.0005050452104047618 0.0 -5.573994202345967e-06 0.0005148255202968327 0.0 -2.1453845077946643e-06 0.0005239857133696541 0.0 -7.813367189864909e-06 0.0005257810206316246 0.0 -2.5211090560530815e-05 0.00045996173895801056 0.0 -1.6501777143663827e-05 0.00047138513071884525 0.0 -1.3927772869754717e-05 0.0004703276263450383 0.0 -1.683765709758545e-05 0.00048571113550500565 0.0 -3.963469411181326e-06 0.000490815582484078 0.0 -1.5744205928381183e-05 0.000511981517215197 0.0 -6.310645439043077e-07 0.0005045