<?xml version="1.0" ?>
<VTKFile type="UnstructuredGrid" version="0.1" byte_order="LittleEndian">
<UnstructuredGrid>
<Piece NumberOfPoints="1500" NumberOfCells="1404">
<Points>
<DataArray type="Float32" format="ascii" NumberOfComponents="3">0.0149999997 0.0299999993 0.0 0.0149999997 0.0401869528 0.0 0.00973947905 0.0450999998 0.0 0.0 0.0450999998 0.0 0.0 0.0299999993 0.0 0.0149999997 0.0500130467 0.0 0.0149999997 0.0599999987 0.0 0.0 0.0599999987 0.0 0.0299999993 0.0299999993 0.0 0.0299999993 0.0450999998 0.0 0.0195885208 0.0450999998 0.0 0.0299999993 0.0599999987 0.0 0.0 0.0 0.0 0.0299999993 0.0 0.0 0.0299999993 0.0900000036 0.0 0.0 0.0900000036 0.0 0.00187499996 0.0299999993 0.0 0.00374999992 0.0299999993 0.0 0.00562500022 0.0299999993 0.0 0.00749999983 0.0299999993 0.0 0.00937500037 0.0299999993 0.0 0.0112500004 0.0299999993 0.0 0.0131249996 0.0299999993 0.0 0.0149999997 0.0309388097 0.0 0.0149999997 0.0315993913 0.0 0.0149999997 0.0322599746 0.0 0.0149999997 0.0329205543 0.0 0.0149999997 0.0335811377 0.0 0.0149999997 0.0342417173 0.0 0.0149999997 0.0349023007 0.0 0.0149999997 0.0355628803 0.0 0.0149999997 0.0362234637 0.0 0.0149999997 0.0368840471 0.0 0.0149999997 0.0375446267 0.0 0.0149999997 0.0382052101 0.0 0.0149999997 0.0388657898 0.0 0.0149999997 0.0395263731 0.0 0.0145518444 0.0401767567 0.0 0.0141046178 0.0402073525 0.0 0.0136620263 0.0402784906 0.0 0.0132277375 0.0403895788 0.0 0.0128053501 0.0405397005 0.0 0.012398364 0.0407276079 0.0 0.0120101506 0.0409517474 0.0 0.0116439275 0.0412102602 0.0 0.0113027301 0.0415010042 0.0 0.0109893847 0.0418215692 0.0 0.0107064871 0.042169299 0.0 0.0104563832 0.0425413139 0.0 0.0102411434 0.0429345332 0.0 0.010062553 0.0433456935 0.0 0.00992209092 0.0437713899 0.0 0.00982092042 0.0442080945 0.0 0.00975988153 0.0446521938 0.0 0.00910791382 0.0450999998 0.0 0.00847634859 0.0450999998 0.0 0.0078447843 0.0450999998 0.0 0.00721321953 0.0450999998 0.0 0.00658165431 0.0450999998 0.0 0.00595008954 0.0450999998 0.0 0.00531852478 0.0450999998 0.0 0.00468696002 0.0450999998 0.0 0.00405539526 0.0450999998 0.0 0.00342383026 0.0450999998 0.0 0.0027922655 0.0450999998 0.0 0.00216070074 0.0450999998 0.0 0.00152913586 0.0450999998 0.0 0.000897571037 0.0450999998 0.0 0.0 0.0438416675 0.0 0.0 0.0425833352 0.0 0.0 0.0413249992 0.0 0.0 0.0400666669 0.0 0.0 0.0388083346 0.0 0.0 0.0375499986 0.0 0.0 0.0362916663 0.0 0.0 0.035033334 0.0 0.0 0.0337750018 0.0 0.0 0.0325166658 0.0 0.0 0.0312583335 0.0 0.00975988153 0.0455478057 0.0 0.00982092042 0.045991905 0.0 0.00992209092 0.0464286096 0.0 0.010062553 0.046854306 0.0 0.0102411434 0.0472654663 0.0 0.0104563832 0.0476586856 0.0 0.0107064871 0.0480307005 0.0 0.0109893847 0.0483784303 0.0 0.0113027301 0.0486989953 0.0 0.0116439275 0.0489897393 0.0 0.0120101506 0.0492482521 0.0 0.012398364 0.0494723916 0.0 0.0128053501 0.049660299 0.0 0.0132277375 0.0498104207 0.0 0.0136620263 0.0499215089 0.0 0.0141046178 0.049992647 0.0 0.0145518444 0.0500232428 0.0 0.0149999997 0.0506606586 0.0 0.0149999997 0.0513082705 0.0 0.0149999997 0.0519558825 0.0 0.0149999997 0.0526034944 0.0 0.0149999997 0.05325111 0.0 0.0149999997 0.0538987219 0.0 0.0149999997 0.0545463338 0.0 0.0149999997 0.0551939458 0.0 0.0149999997 0.0558415577 0.0 0.0149999997 0.0564891733 0.0 0.0149999997 0.0571367852 0.0 0.0149999997 0.0577843972 0.0 0.0149999997 0.0584320091 0.0 0.0149999997 0.059079621 0.0 0.0131249996 0.0599999987 0.0 0.0112500004 0.0599999987 0.0 0.00937500037 0.0599999987 0.0 0.00749999983 0.0599999987 0.0 0.00562500022 0.0599999987 0.0 0.00374999992 0.0599999987 0.0 0.00187499996 0.0599999987 0.0 0.0 0.0587583333 0.0 0.0 0.057516668 0.0 0.0 0.0562749989 0.0 0.0 0.0550333336 0.0 0.0 0.0537916683 0.0 0.0 0.0525499992 0.0 0.0 0.0513083339 0.0 0.0 0.0500666648 0.0 0.0 0.0488249995 0.0 0.0 0.0475833341 0.0 0.0 0.0463416651 0.0 0.0195713751 0.0446894132 0.0 0.0195200555 0.0442816839 0.0 0.0194349196 0.0438796543 0.0 0.0193165597 0.0434861258 0.0 0.0191658027 0.0431038328 0.0 0.0189836938 0.0427354388 0.0 0.0187715068 0.0423835143 0.0 0.0185307153 0.0420505032 0.0 0.0182629973 0.0417387299 0.0 0.0179702155 0.0414503627 0.0 0.0176544115 0.041187413 0.0 0.0173177831 0.0409517065 0.0 0.0169626754 0.0407448858 0.0 0.0165915582 0.0405683964 0.0 0.0162070207 0.040423464 0.0 0.0158117376 0.0403110944 0.0 0.0154084601 0.0402320772 0.0 0.0168750007 0.0299999993 0.0 0.0187500007 0.0299999993 0.0 0.0206250008 0.0299999993 0.0 0.0225000009 0.0299999993 0.0 0.0243749991 0.0299999993 0.0 0.0262499992 0.0299999993 0.0 0.0281249993 0.0299999993 0.0 0.0299999993 0.0312583335 0.0 0.0299999993 0.0325166658 0.0 0.0299999993 0.0337750018 0.0 0.0299999993 0.035033334 0.0 0.0299999993 0.0362916663 0.0 0.0299999993 0.0375499986 0.0 0.0299999993 0.0388083346 0.0 0.0299999993 0.0400666669 0.0 0.0299999993 0.0413249992 0.0 0.0299999993 0.0425833352 0.0 0.0299999993 0.0438416675 0.0 0.0290404987 0.0450999998 0.0 0.0283653568 0.0450999998 0.0 0.0276902169 0.0450999998 0.0 0.0270150751 0.0450999998 0.0 0.0263399333 0.0450999998 0.0 0.0256647933 0.0450999998 0.0 0.0249896515 0.0450999998 0.0 0.0243145097 0.0450999998 0.0 0.0236393698 0.0450999998 0.0 0.0229642279 0.0450999998 0.0 0.0222890861 0.0450999998 0.0 0.0216139443 0.0450999998 0.0 0.0209388044 0.0450999998 0.0 0.0202636626 0.0450999998 0.0 0.0281249993 0.0599999987 0.0 0.0262499992 0.0599999987 0.0 0.0243749991 0.0599999987 0.0 0.0225000009 0.0599999987 0.0 0.0206250008 0.0599999987 0.0 0.0187500007 0.0599999987 0.0 0.0168750007 0.0599999987 0.0 0.0154084601 0.049967926 0.0 0.0158117376 0.0498889051 0.0 0.0162070207 0.0497765355 0.0 0.0165915582 0.0496316031 0.0 0.0169626754 0.0494551137 0.0 0.0173177831 0.049248293 0.0 0.0176544115 0.0490125902 0.0 0.0179702155 0.0487496369 0.0 0.0182629973 0.0484612696 0.0 0.0185307153 0.0481494963 0.0 0.0187715068 0.0478164889 0.0 0.0189836938 0.0474645607 0.0 0.0191658027 0.0470961705 0.0 0.0193165597 0.0467138775 0.0 0.0194349196 0.0463203453 0.0 0.0195200555 0.0459183156 0.0 0.0195713751 0.0455105864 0.0 0.0299999993 0.0463416651 0.0 0.0299999993 0.0475833341 0.0 0.0299999993 0.0488249995 0.0 0.0299999993 0.0500666648 0.0 0.0299999993 0.0513083339 0.0 0.0299999993 0.0525499992 0.0 0.0299999993 0.0537916683 0.0 0.0299999993 0.0550333336 0.0 0.0299999993 0.0562749989 0.0 0.0299999993 0.057516668 0.0 0.0299999993 0.0587583333 0.0 0.0 0.0270000007 0.0 0.0 0.0240000002 0.0 0.0 0.0209999997 0.0 0.0 0.0179999992 0.0 0.0 0.0149999997 0.0 0.0 0.0120000001 0.0 0.0 0.00899999961 0.0 0.0 0.00600000005 0.0 0.0 0.00300000003 0.0 0.00187499996 0.0 0.0 0.00374999992 0.0 0.0 0.00562500022 0.0 0.0 0.00749999983 0.0 0.0 0.00937500037 0.0 0.0 0.0112500004 0.0 0.0 0.0131249996 0.0 0.0 0.0149999997 0.0 0.0 0.0168750007 0.0 0.0 0.0187500007 0.0 0.0 0.0206250008 0.0 0.0 0.0225000009 0.0 0.0 0.0243749991 0.0 0.0 0.0262499992 0.0 0.0 0.0281249993 0.0 0.0 0.0299999993 0.00300000003 0.0 0.0299999993 0.00600000005 0.0 0.0299999993 0.00899999961 0.0 0.0299999993 0.0120000001 0.0 0.0299999993 0.0149999997 0.0 0.0299999993 0.0179999992 0.0 0.0299999993 0.0209999997 0.0 0.0299999993 0.0240000002 0.0 0.0299999993 0.0270000007 0.0 0.0299999993 0.063000001 0.0 0.0299999993 0.0659999996 0.0 0.0299999993 0.0689999983 0.0 0.0299999993 0.0719999969 0.0 0.0299999993 0.075000003 0.0 0.0299999993 0.0780000016 0.0 0.0299999993 0.0810000002 0.0 0.0299999993 0.0839999989 0.0 0.0299999993 0.0869999975 0.0 0.0281249993 0.0900000036 0.0 0.0262499992 0.0900000036 0.0 0.0243749991 0.0900000036 0.0 0.0225000009 0.0900000036 0.0 0.0206250008 0.0900000036 0.0 0.0187500007 0.0900000036 0.0 0.0168750007 0.0900000036 0.0 0.0149999997 0.0900000036 0.0 0.0131249996 0.0900000036 0.0 0.0112500004 0.0900000036 0.0 0.00937500037 0.0900000036 0.0 0.00749999983 0.0900000036 0.0 0.00562500022 0.0900000036 0.0 0.00374999992 0.0900000036 0.0 0.00187499996 0.0900000036 0.0 0.0 0.0869999975 0.0 0.0 0.0839999989 0.0 0.0 0.0810000002 0.0 0.0 0.0780000016 0.0 0.0 0.075000003 0.0 0.0 0.0719999969 0.0 0.0 0.0689999983 0.0 0.0 0.0659999996 0.0 0.0 0.063000001 0.0 0.00240605418 0.0317476094 0.0 0.0132285897 0.0308372527 0.0 0.0114639541 0.0308285281 0.0 0.00970989279 0.0308664478 0.0 0.00796741433 0.030946292 0.0 0.00622726884 0.0310834199 0.0 0.00444168784 0.0313186944 0.0 0.0115238708 0.0404538177 0.0 0.0110589247 0.0399643853 0.0 0.0105802957 0.0394543298 0.0 0.0100896806 0.0389274582 0.0 0.00958756451 0.0383866653 0.0 0.00907252356 0.0378334895 0.0 0.00854044221 0.0372676216 0.0 0.00798357651 0.0366861634 0.0 0.00738931261 0.0360825956 0.0 0.00673822826 0.0354451761 0.0 0.00600026548 0.0347540006 0.0 0.00512524834 0.0339741185 0.0 0.00401390065 0.0330347866 0.0 0.000793838175 0.0438955426 0.0 0.000772442494 0.0426918976 0.0 0.000783006602 0.0414899141 0.0 0.000811753387 0.0402907245 0.0 0.000856733182 0.0390956625 0.0 0.000921554572 0.037906155 0.0 0.00101479655 0.0367233306 0.0 0.00115271518 0.0355465077 0.0 0.00136729016 0.0343677737 0.0 0.00172855402 0.0331514254 0.0 0.0133339632 0.0315873995 0.0 0.0134397261 0.0323022977 0.0 0.0135442559 0.032998085 0.0 0.0136464294 0.0336812399 0.0 0.013745822 0.0343553573 0.0 0.013842525 0.0350228548 0.0 0.0139368745 0.0356853306 0.0 0.0140292263 0.0363436677 0.0 0.0141198216 0.0369979888 0.0 0.0142087657 0.0376475193 0.0 0.0142960874 0.0382902175 0.0 0.0143820234 0.0389216021 0.0 0.0144678745 0.0395311117 0.0 0.0116815548 0.0316202343 0.0 0.011899055 0.0323765688 0.0 0.0121123437 0.033103589 0.0 0.0123189483 0.0338073969 0.0 0.0125182495 0.0344934613 0.0 0.0127108386 0.0351662561 0.0 0.0128977867 0.0358290039 0.0 0.0130801173 0.0364835784 0.0 0.0132585336 0.0371304527 0.0 0.0134333326 0.0377685912 0.0 0.0136044715 0.0383952036 0.0 0.0137717454 0.0390052013 0.0 0.0139350798 0.0395906046 0.0 0.0100520272 0.0317044854 0.0 0.010392216 0.0325013697 0.0 0.0107216369 0.0332574546 0.0 0.01103618 0.0339790136 0.0 0.0113357538 0.0346737355 0.0 0.0116223767 0.0353484601 0.0 0.011898635 0.0360082686 0.0 0.0121667851 0.0366562307 0.0 0.0124283545 0.03
[...]
<PointData>
<DataArray Name="displ" NumberOfComponents="3" type="Float32" format="ascii">-3.302983367712521e-05 0.00022736938068979926 0.0 -5.447687248827733e-05 0.00023867343492168058 0.0 4.910937888231628e-06 0.0003110452287944393 0.0 -9.586116827600158e-06 0.0002893167805119449 0.0 -2.298881600558132e-05 0.00024401891284460297 0.0 -3.620526788238283e-05 0.00035289308364850377 0.0 -3.7124392386978364e-05 0.0003538549780809211 0.0 -3.149573670255976e-05 0.0003310127409076901 0.0 -3.495066295442569e-05 0.000252363758005221 0.0 -5.741733097205241e-05 0.0002961110685061087 0.0 -4.993203555020678e-05 0.000295399044111584 0.0 -4.028051705465838e-05 0.00034605779429107257 0.0 -1.277429565905571e-05 0.00016485180236217283 0.0 -2.5337383517667102e-05 0.00017167195903163723 0.0 -4.449061359077726e-05 0.0004323866155707251 0.0 -3.6554826831651854e-05 0.00042169499257217226 0.0 -2.304234436278972e-05 0.00024336747817531713 0.0 -2.3576534363809274e-05 0.00024125077772316168 0.0 -2.561476682485828e-05 0.00023993259652905084 0.0 -2.8445439805777496e-05 0.00023481464837058738 0.0 -3.000469936177302e-05 0.00023246202654744167 0.0 -3.141329546629852e-05 0.00022765879824932834 0.0 -3.3784011972075695e-05 0.00022738269355524726 0.0 -3.412111859948691e-05 0.00022936638875811638 0.0 -3.324013404761818e-05 0.0002276929686033411 0.0 -3.341808067239776e-05 0.0002311549039092844 0.0 -3.322211391151872e-05 0.00022957331381563394 0.0 -3.3528165944192525e-05 0.00023124569237619206 0.0 -3.3802456722057424e-05 0.0002341517358579189 0.0 -3.5390276422268896e-05 0.0002324045552363096 0.0 -3.245864617661116e-05 0.00023314704743659782 0.0 -3.50014949653728e-05 0.0002335886305785773 0.0 -3.461142286660841e-05 0.00023539881199745552 0.0 -3.512145024179896e-05 0.00023258168015244938 0.0 -3.5684346018632806e-05 0.0002342396010283583 0.0 -2.6028144473892335e-05 0.0002367469760634543 0.0 -3.15723721096175e-05 0.0002325462068698511 0.0 -2.7086667642623408e-05 0.00022724520774687254 0.0 -3.1090999475239465e-05 0.0002400783082081847 0.0 -2.246761056360773e-05 0.00023831169575491546 0.0 -2.175748417003725e-05 0.00023494266461749125 0.0 -2.3381390210647985e-05 0.00023546117395230044 0.0 -2.296074192633102e-06 0.00024239260386620248 0.0 -2.2230892681408776e-05 0.00023738221393259694 0.0 -7.1090654015314755e-06 0.00023796691027052738 0.0 -1.4890526302504544e-05 0.0002543369625964343 0.0 -1.5744194011253223e-05 0.0002517175234040849 0.0 -1.64861915190012e-05 0.00025197640817689197 0.0 -7.914668493044361e-06 0.0002624189953321887 0.0 -2.6052550122533065e-05 0.0002699284636022725 0.0 -1.411280913479796e-05 0.00027291674026387326 0.0 -1.261918193946198e-05 0.0002617546536198041 0.0 -1.2438283345003822e-05 0.00028332530331288773 0.0 -2.2000077022664894e-05 0.00027818607676772004 0.0 -1.8259261897195465e-05 0.00029490155190795903 0.0 -1.3951259850453084e-05 0.0002950435508922291 0.0 -2.076907981143047e-05 0.00029544609900368816 0.0 -1.5434241213818374e-05 0.0002931466204473867 0.0 -1.1799045839003339e-05 0.0002951462682312553 0.0 -1.5748779936325873e-05 0.0002911679450207638 0.0 -1.7011810552210007e-05 0.00029392693812570013 0.0 -1.6703962035434845e-05 0.0002887854651585673 0.0 -1.4460937193881974e-05 0.0002932784941766909 0.0 -1.2909302683418787e-05 0.00028666296978612237 0.0 -1.1996037304025678e-05 0.00028817440807478147 0.0 -1.1349681826266205e-05 0.00029054330034919917 0.0 -1.2349532145752715e-05 0.0002909768165624453 0.0 -1.295792194122783e-05 0.00028956257758662045 0.0 -1.1974991378514416e-05 0.0002803975903926274 0.0 -1.4437833547769569e-05 0.0002877405650524742 0.0 -1.418829970623341e-05 0.000276439743946289 0.0 -1.7491589370167744e-05 0.0002792197812131818 0.0 -1.8571454309125583e-05 0.0002746105518561759 0.0 -2.36614913516512e-05 0.00026684442769252725 0.0 -2.1192151973997165e-05 0.00026390061594042623 0.0 -2.2699082541892454e-05 0.00025765547687015754 0.0 -2.2008380427673294e-05 0.0002547655717551026 0.0 -2.0516613096840787e-05 0.0002525563177500565 0.0 -2.311531455226727e-05 0.0002461462242930179 0.0 -2.027537158206487e-07 0.0003048629177017532 0.0 -1.6473301441848662e-05 0.00031858903404064734 0.0 -6.199511994129165e-06 0.00031733488039880053 0.0 -1.5236463563371345e-05 0.00032773310886569025 0.0 -6.927894901419035e-06 0.0003397934909321953 0.0 -8.220239295914934e-06 0.0003378308826982017 0.0 -2.3464247241244023e-05 0.00032984973401961636 0.0 -1.6404335501431427e-05 0.0003428977408531351 0.0 -1.583366231156809e-05 0.0003446813420298865 0.0 -3.0859646538902145e-05 0.0003379417421659054 0.0 -2.4359264886993662e-05 0.00033707444058625463 0.0 -3.0028835280489433e-05 0.00034571375875233905 0.0 -3.401067874607641e-05 0.00034922512966060353 0.0 -3.301790388237115e-05 0.0003418265943757747 0.0 -3.4013659480887964e-05 0.00035204887348586625 0.0 -2.2523160158272665e-05 0.0003420009756622175 0.0 -4.2342485070972723e-05 0.0003573292112795285 0.0 -3.957094752169458e-05 0.00034985380416380804 0.0 -3.603377089567635e-05 0.0003479245340592302 0.0 -2.6042955672182238e-05 0.0003501627882019063 0.0 -3.668676105807261e-05 0.00035093344077548886 0.0 -3.948097851586966e-05 0.00035204772452888803 0.0 -3.080077393427341e-05 0.0003444093689455146 0.0 -3.3778689842048333e-05 0.0003515106940820336 0.0 -3.2474938860921984e-05 0.00034619301176269353 0.0 -3.958890636398529e-05 0.00034773962209894355 0.0 -3.4659189793740784e-05 0.0003477928483697045 0.0 -3.7953936865622726e-05 0.00035138634613673687 0.0 -3.8243160783832327e-05 0.00035014185542343624 0.0 -3.716927038313622e-05 0.000349342397234239 0.0 -3.841744296092856e-05 0.0003540762398085756 0.0 -3.7835115229968606e-05 0.00035288495957084285 0.0 -3.735000163995701e-05 0.0003517843481164373 0.0 -3.8797054941678046e-05 0.00034875158635652015 0.0 -3.723673819514266e-05 0.00034310716600144506 0.0 -3.451574897491333e-05 0.0003420897036339254 0.0 -3.358127843835875e-05 0.00033695040736736627 0.0 -3.1266412582022896e-05 0.0003339181762238866 0.0 -3.023723415995397e-05 0.0003303305388889616 0.0 -2.8893351106160516e-05 0.0003228591545871393 0.0 -3.0815696149666534e-05 0.0003202903722021787 0.0 -2.8456935085921004e-05 0.000314661121932121 0.0 -2.8432337482051167e-05 0.00031129043738614313 0.0 -2.180265977293785e-05 0.0003122921420675051 0.0 -2.209620532599577e-05 0.00030701474831135124 0.0 -1.7469705962236655e-05 0.00030130182283229126 0.0 -9.168990974296931e-06 0.0002980012717680908 0.0 -1.2841948849177261e-05 0.0002966940246919147 0.0 -1.1319837009493963e-05 0.00029408269581467073 0.0 -5.071714047545628e-05 0.00028893780800196857 0.0 -4.364273133550338e-05 0.00028342301420527366 0.0 -5.2736156420872245e-05 0.00027625342309850644 0.0 -4.996063868447464e-05 0.0002836199486207709 0.0 -5.0050845407957415e-05 0.00027020179172667014 0.0 -5.3099043448148726e-05 0.0002685034712850548 0.0 -5.5047178515276925e-05 0.0002547761858169771 0.0 -4.960443427254542e-05 0.00026344194740688656 0.0 -5.277756239844996e-05 0.00024524227159423414 0.0 -4.702851088335574e-05 0.00025749213663993933 0.0 -3.446948591883837e-05 0.0002545391475221849 0.0 -4.9081042479934406e-05 0.00024175594552122047 0.0 -4.6121188117155596e-05 0.00023811028878846808 0.0 -4.187507553562601e-05 0.00024197104014758746 0.0 -3.081746382098873e-05 0.00024391704907268766 0.0 -3.382778920496792e-05 0.00023631094095573647 0.0 -3.812636299948211e-05 0.00023545501654031813 0.0 -3.297410797475966e-05 0.00023019870100406714 0.0 -3.186918312481199e-05 0.0002344109685192683 0.0 -3.135709126614896e-05 0.00024202540042263143 0.0 -3.3097166635825965e-05 0.0002464618164141846 0.0 -3.5510235721931785e-05 0.00024944889307404683 0.0 -3.5166902109180943e-05 0.00025114169225322233 0.0 -3.866948848368293e-05 0.0002518591935610763 0.0 -4.1310313297425725e-05 0.00025637837845300074 0.0 -4.203089941681672e-05 0.0002629792535538902 0.0 -3.894554547002811e-05 0.00026236334078430116 0.0 -4.370609028889721e-05 0.00027741114250428743 0.0 -4.5362918645387405e-05 0.0002754665965448202 0.0 -4.7338145336279015e-05 0.0002843500433698193 0.0 -4.713203631012109e-05 0.0002877601648174208 0.0 -5.3097980947728086e-05 0.00029785129281508887 0.0 -5.243679053304192e-05 0.0002907735501615879 0.0 -5.477712196464923e-05 0.0002920418513477134 0.0 -5.4422500330785166e-05 0.00029437781797942266 0.0 -5.381377096007089e-05 0.00030228696213277105 0.0 -4.838649219198519e-05 0.00029919535039337944 0.0 -4.8565821657095105e-05 0.00029684885890588955 0.0 -5.602814020478945e-05 0.0002968574056743019 0.0 -6.023443391644899e-05 0.00030128462427296554 0.0 -5.4944925251568614e-05 0.0002967429535307264 0.0 -5.7204361662614444e-05 0.0002983072693034185 0.0 -4.504448416282356e-05 0.00029987242197502867 0.0 -5.0948219884559204e-05 0.0002966331233533455 0.0 -4.5761105325668615e-05 0.0003001310447622132 0.0 -5.6478754102592596e-05 0.00029507421151896254 0.0 -5.607451520437566e-05 0.0003013081483154747 0.0 -5.482820724128677e-05 0.0002971162428596542 0.0 -4.997949084665821e-05 0.00030466307178702987 0.0 -3.637455058444416e-05 0.0003445697423647135 0.0 -3.612438607625574e-05 0.0003435462903827233 0.0 -3.5747513570343386e-05 0.00034413664658151125 0.0 -3.6897271761360475e-05 0.00034527005105541386 0.0 -3.599478727222039e-05 0.0003443644149145942 0.0 -3.740372748337584e-05 0.0003508178631854915 0.0 -3.626552943732177e-05 0.00035283076080122784 0.0 -2.5579215045205466e-05 0.0003517614048669515 0.0 -3.573021848048939e-05 0.0003494686819220592 0.0 -3.787305286195464e-05 0.00034882637305798885 0.0 -3.919455083604373e-05 0.00034637519020462175 0.0 -4.7864943089775166e-05 0.00034683699722903616 0.0 -4.1620939565183717e-05 0.00034548049515896554 0.0 -4.8368827681576165e-05 0.00033129561222520245 0.0 -4.8359840276724444e-05 0.0003431921148780671 0.0 -4.696519266279992e-05 0.0003304487415471782 0.0 -5.2449394951828605e-05 0.0003477785350963602 0.0 -5.317255788366036e-05 0.00033078323503595784 0.0 -4.286331583494612e-05 0.0003233358431369433 0.0 -5.026314513203791e-05 0.00032544703828262374 0.0 -5.3667346598898656e-05 0.0003167662543479908 0.0 -5.9418459792111366e-05 0.0002959967979997175 0.0 -4.4788376259846216e-05 0.00030642752797373484 0.0 -5.3692332451823564e-05 0.0003030721063183857 0.0 -5.404116897227095e-05 0.00030255616744074865 0.0 -5.0158641175079294e-05 0.00029962177502642734 0.0 -4.9205203419973344e-05 0.0003010075905077698 0.0 -4.910485368193022e-05 0.0003196248559718225 0.0 -4.418089961035461e-05 0.0003115459014614406 0.0 -4.3078148780418835e-05 0.00031688186521315354 0.0 -4.214019702167882e-05 0.00031370274762522503 0.0 -3.9859107706866936e-05 0.0003316179221998874 0.0 -4.560674914421162e-05 0.0003278971354771688 0.0 -4.043251983677332e-05 0.00033481741005723177 0.0 -4.6671886561877176e-05 0.00033786023706954145 0.0 -1.8765598197891528e-05 0.00023153770316586462 0.0 -1.8516083359490247e-05 0.0002241301652982157 0.0 -1.837882277327186e-05 0.000216518157708586 0.0 -1.7364109434733883e-05 0.0002081163167165388 0.0 -1.3660529634200539e-05 0.00020061158723553817 0.0 -1.2145286824029008e-05 0.00019137580862638116 0.0 -1.2527976629179865e-05 0.0001851662253125783 0.0 -1.116393843961285e-05 0.0001787898517366777 0.0 -1.0965847023538942e-05 0.0001708627287832627 0.0 -1.3037931492113195e-05 0.00016680092753293275 0.0 -1.6988528962141806e-05 0.00016577465586681522 0.0 -1.905698879552406e-05 0.00016866599649965322 0.0 -2.2021275420376472e-05 0.00016542795669811442 0.0 -2.365210420524697e-05 0.00016800458856040126 0.0 -2.419157457823546e-05 0.00016709384772879333 0.0 -2.563416207852059e-05 0.0001681188272693818 0.0 -2.535623844475578e-05 0.00016697007933976418 0.0 -2.1948192138391505e-05 0.00016656486962660978 0.0 -2.252171001168366e-05 0.0001688416300713366 0.0 -2.327802252197442e-05 0.00016999017094976402 0.0 -2.442725223278674e-05 0.000171681021345537 0.0 -2.361807810567206e-05 0.0001714812310352546 0.0 -2.4072313903834826e-05 0.00017176055125445056 0.0 -2.3778877557655878e-05 0.00017098122187460114 0.0 -2.3381414500497726e-05 0.00018021719967546397 0.0 -2.5812687572404116e-05 0.00018723538857781105 0.0 -2.7607366573516613e-05 0.0001950766596771781 0.0 -3.075705903513106e-05 0.00020253286054745234 0.0 -3.3082480635569734e-05 0.0002122545807260397 0.0 -3.0765345465363464e-05 0.00022281019848288596 0.0 -3.09615495213606e-05 0.00022416610931418523 0.0 -3.313055101641313e-05 0.00023264656822721158 0.0 -3.365841452535451e-05 0.00024023091850708495 0.0 -4.19518661967037e-05 0.0003542364509555399 0.0 -4.1363359691237526e-05 0.00036335361240921244 0.0 -3.9127633824183025e-05 0.0003684758914988107 0.0 -4.091330680071554e-05 0.0003796987005485595 0.0 -4.006275270869125e-05 0.0003872144506586764 0.0 -4.5078572469998697e-05 0.0003908630112479116 0.0 -4.925905239288847e-05 0.0003991872336596537 0.0 -4.876035256997846e-05 0.0004151305405994327 0.0 -4.754983011587557e-05 0.00041733315782173846 0.0 -4.6285187559644995e-05 0.00043306618776143695 0.0 -4.600172147404681e-05 0.000430195564695467 0.0 -4.710330854063864e-05 0.0004293607686546465 0.0 -4.56169929494227e-05 0.0004286579624065047 0.0 -4.573767189492869e-05 0.00042724595100760907 0.0 -4.328922105639635e-05 0.00042564080063656635 0.0 -4.406194110514847e-05 0.00042700084050212653 0.0 -4.21944475618158e-05 0.0004295200616205165 0.0 -3.982717573981155e-05 0.0004285029618608343 0.0 -3.951659513483003e-05 0.00043077742920584044 0.0 -3.912575473909215e-05 0.0004279033864450664 0.0 -3.613684224188085e-05 0.0004286681574022383 0.0 -3.7245312228474934e-05 0.0004261369431214765 0.0 -3.690888649629178e-05 0.00042490604912931776 0.0 -3.4835641359621446e-05 0.0004246595848548094 0.0 -3.590418566316002e-05 0.0004170913782511947 0.0 -3.635411979797167e-05 0.0004047962732680746 0.0 -3.526792492624697e-05 0.0004035637482408205 0.0 -3.33522068965326e-05 0.000395090435119392 0.0 -3.0638373153323454e-05 0.00038846133681609584 0.0 -3.096352520285292e-05 0.0003767878362568556 0.0 -3.26972672795089e-05 0.0003645814175668478 0.0 -3.1608055411368175e-05 0.0003542218608364841 0.0 -3.149767808836541e-05 0.0003437876186118668 0.0 -2.4457628231326068e-05 0.00024761107845010336 0.0 -3.1509628295740026e-05 0.0002273807693491763 0.0 -3.1384418886970435e-05 0.0002307925338488174 0.0 -3.105544170211276e-05 0.00023011630346014952 0.0 -2.850715982406879e-05 0.00023827036098999214 0.0 -2.6776460852585266e-05 0.00023851297725616198 0.0 -2.6854782211047325e-05 0.00024279760682712482 0.0 -2.4948890681293987e-05 0.00024314348230466005 0.0 -2.3696368132242942e-05 0.00024962218077470154 0.0 -2.6828902746256425e-05 0.0002487221224789823 0.0 -2.953511112259382e-05 0.00024959213969152596 0.0 -2.8329363758723175e-05 0.0002511951989831136 0.0 -2.787933854802704e-05 0.00025273938539496354 0.0 -2.981288658532188e-05 0.0002532836880108257 0.0 -2.96794317331096e-05 0.0002530844832161744 0.0 -2.998536955502244e-05 0.0002501047691681791 0.0 -2.7066489182776238e-05 0.00025221583335487705 0.0 -2.8457238297217522e-05 0.0002510053178251203 0.0 -2.570715770848208e-05 0.00024796542693651663 0.0 -2.7400607750232154e-05 0.0002486223265896263 0.0 -1.3420092278006839e-05 0.0002862295837619754 0.0 -1.5626709098510347e-05 0.0002825821798282931 0.0 -1.6459781162030412e-05 0.00027999650044918895 0.0 -1.620590663348073e-05 0.00027398403864008783 0.0 -2.0566590865802496e-05 0.0002714178083968584 0.0 -1.9303636079632303e-05 0.0002686917755186962 0.0 -2.3875283699354696e-05 0.00026200570323672064 0.0 -2.0877312397880683e-05 0.0002592306709597065 0.0 -2.3953411039983486e-05 0.00025591454584441724 0.0 -2.553408975333323e-05 0.00025043892353219935 0.0 -3.352930786364688e-05 0.00022961612525745806 0.0 -3.3155291230870484e-05 0.00023112116494167418 0.0 -3.515037931562447e-05 0.00023074520583459744 0.0 -3.3462769692504914e-05 0.0002304346975846793 0.0 -3.343418463258961e-05 0.00023028221645816113 0.0 -3.2450288141738764e-05 0.000233066922015025 0.0 -3.494098378745611e-05 0.00023236250538943447 0.0 -2.9302332162555126e-05 0.00023462593795682972 0.0 -3.3756267809854554e-05 0.0002374285676888769 0.0 -2.530185600011395e-05 0.00023346043570308383 0.0 -3.81600344638463e-05 0.00023888131766071688 0.0 -3.3933762694495256e-05 0.00023753781258177068 0.0 -3.2268185012266e-05 0.0002416598817430063 0.0 -3.2198079068405786e-05 0.00023151808868203958 0.0 -3.410971860063658e-05 0.00023043514975955748 0.0 -3.083686338539623e-05 0.00023036976868924555 0.0 -3.208572146191302e-05 0.0002348207382105091 0.0 -2.97826574595922e-05 0.00023349066559533223 0.0 -3.068329945115039e-05 0.0002330608476068896 0.0 -3.520631164711361e-05 0.0002361930351700862 0.0 -3.2075478992190354e-05 0.00023566275068583642 0.0 -3.225815303525365e-05 0.00023111757901084063 0.0 -3.473427970545145e-05 0.00023614015079378458 0.0 -2.7762110928586107e-05 0.000236538064586129 0.0 -3.521420086448671e-05 0.0002392375317745018 0.0 -3.209165502610658e-05 0.00023494722162337164 0.0 -2.9934288069029153e-05 0.0002342573018796562 0.0 -3.0378693591962675e-05 0.0002323869644620677 0.0 -3.308829314813974e-05 0.00023674156547252514 0.0 -3.191973169484502e-05 0.00023226853280688503 0.0 -3.374220210039031e-05 0.00023588570403025423 0.0 -3.12318780095247e-05 0.00023532058871224837 0.0 -3.334755193876276e-05 0.00023472161890901423 0.0 -3.355937531035635e-05 0.00023679737997187627 0.0 -3.426881080050093e-05 0.00024096630676251744 0.0 -3.283761516570752e-05 0.00023751422830937496 0.0 -3.173181564301625e-05 0.0002341934414694947 0.0 -3.0867988900243276e-05 0.00023647682885601318 0.0 -3.2517550277713547e-05 0.0002369264044844087 0.0 -2.9568336823475424e-05 0.00023819939677347977 0.0 -3.0089031041410974e-05 0.00023880589938825384 0.0 -2.9939474458966546e-05 0.00024105133718208246 0.0 -3.085408120143473e-05 0.0002418070438780463 0.0 -3.2379416730535994e-05 0.0002403081539439076 0.0 -3.3834380139962214e-05 0.00023987653583771676 0.0 -3.3371196075758605e-05 0.00024308633760986703 0.0 -2.907447364856384e-05 0.0002403309724312668 0.0 -3.112197970202193e-05 0.00023943726729216066 0.0 -2.967309442461768e-05 0.00024229884068457973 0.0 -3.2584424012944586e-05 0.00023933059193760538 0.0 -2.3873143120791473e-05 0.00023699901908236717 0.0 -2.714547560703632e-05 0.00024036360872543966 0.0 -2.9531317416960807e-05 0.0002431119116596421 0.0 -2.8899337379540435e-05 0.00024126423583671955 0.0 -3.0411283791342996e-05 0.00024464170808012945 0.0 -3.119625649570182e-05 0.00024252275488079194 0.0 -3.1688974644764654e-05 0.00024439311299383985 0.0 -3.257036422414946e-05 0.00024424553134894106 0.0 -3.2701308031477045e-05 0.0002452652611778248 0.0 -2.96114053327606e-05 0.00024457706171370625 0.0 -3.456188560692539e-05 0.0002458907494020002 0.0 -2.9413744624233514e-05 0.00024064364851141587 0.0 -3.216242512377965e-05 0.0002433775155770452 0.0 -2.5935995871409807e-05 0.00023735425224102386 0.0 -3.6620615770983816e-05 0.0002412808439434677 0.0 -2.810317602477197e-05 0.00024463928906399084 0.0 -2.767687437752864e-05 0.00024840070178459617 0.0 -2.8647488348041505e-05 0.0002487779044514188 0.0 -2.9355278035235984e-05 0.0002501794262825349 0.0 -3.0905412128247744e-05 0.00025132465969799066 0.0 -2.935693448476961e-05 0.0002487736888379376 0.0 -2.8294457484477517e-05 0.00025036176810317416 0.0 -3.260150871854233e-05 0.00024775238166583 0.0 -3.1642244726942256e-05 0.00024756180447460855 0.0 -2.696151115335307e-05 0.0002511941326639383 0.0 -3.0744674545650404e-05 0.00024197420190086012 0.0 -2.990291986727883e-05 0.0002503351233878028 0.0 -2.702151376898617e-05 0.00023347490163156293 0.0 -2.7573654449028273e-05 0.00024947892836175 0.0 -2.1990338405507248e-05 0.00024219242069165067 0.0 -1.9887365362475654e-05 0.00025755830368508626 0.0 -1.5591814977813744e-05 0.0002572210090372353 0.0 -1.8853469840720292e-05 0.0002596228327698883 0.0 -8.2459040499663e-06 0.0002730876222279232 0.0 -1.5378652303253005e-05 0.0002758822791568543 0.0 -1.741685971366108e-05 0.0002860481620265962 0.0 -1.438036020361117e-05 0.0002873872708089955 0.0 -1.9869409266801387e-05 0.00029395504993120326 0.0 -2.3235618314335144e-05 0.000248369460944485 0.0 -2.609743308382761e-05 0.00025850819418984765 0.0 -2.0139363268004244e-05 0.00026017801401