<?xml version="1.0" ?>
<VTKFile type="UnstructuredGrid" version="0.1" byte_order="LittleEndian">
<UnstructuredGrid>
<Piece NumberOfPoints="1500" NumberOfCells="1404">
<Points>
<DataArray type="Float32" format="ascii" NumberOfComponents="3">0.0149999997 0.0299999993 0.0 0.0149999997 0.0401869528 0.0 0.00973947905 0.0450999998 0.0 0.0 0.0450999998 0.0 0.0 0.0299999993 0.0 0.0149999997 0.0500130467 0.0 0.0149999997 0.0599999987 0.0 0.0 0.0599999987 0.0 0.0299999993 0.0299999993 0.0 0.0299999993 0.0450999998 0.0 0.0195885208 0.0450999998 0.0 0.0299999993 0.0599999987 0.0 0.0 0.0 0.0 0.0299999993 0.0 0.0 0.0299999993 0.0900000036 0.0 0.0 0.0900000036 0.0 0.00187499996 0.0299999993 0.0 0.00374999992 0.0299999993 0.0 0.00562500022 0.0299999993 0.0 0.00749999983 0.0299999993 0.0 0.00937500037 0.0299999993 0.0 0.0112500004 0.0299999993 0.0 0.0131249996 0.0299999993 0.0 0.0149999997 0.0309388097 0.0 0.0149999997 0.0315993913 0.0 0.0149999997 0.0322599746 0.0 0.0149999997 0.0329205543 0.0 0.0149999997 0.0335811377 0.0 0.0149999997 0.0342417173 0.0 0.0149999997 0.0349023007 0.0 0.0149999997 0.0355628803 0.0 0.0149999997 0.0362234637 0.0 0.0149999997 0.0368840471 0.0 0.0149999997 0.0375446267 0.0 0.0149999997 0.0382052101 0.0 0.0149999997 0.0388657898 0.0 0.0149999997 0.0395263731 0.0 0.0145518444 0.0401767567 0.0 0.0141046178 0.0402073525 0.0 0.0136620263 0.0402784906 0.0 0.0132277375 0.0403895788 0.0 0.0128053501 0.0405397005 0.0 0.012398364 0.0407276079 0.0 0.0120101506 0.0409517474 0.0 0.0116439275 0.0412102602 0.0 0.0113027301 0.0415010042 0.0 0.0109893847 0.0418215692 0.0 0.0107064871 0.042169299 0.0 0.0104563832 0.0425413139 0.0 0.0102411434 0.0429345332 0.0 0.010062553 0.0433456935 0.0 0.00992209092 0.0437713899 0.0 0.00982092042 0.0442080945 0.0 0.00975988153 0.0446521938 0.0 0.00910791382 0.0450999998 0.0 0.00847634859 0.0450999998 0.0 0.0078447843 0.0450999998 0.0 0.00721321953 0.0450999998 0.0 0.00658165431 0.0450999998 0.0 0.00595008954 0.0450999998 0.0 0.00531852478 0.0450999998 0.0 0.00468696002 0.0450999998 0.0 0.00405539526 0.0450999998 0.0 0.00342383026 0.0450999998 0.0 0.0027922655 0.0450999998 0.0 0.00216070074 0.0450999998 0.0 0.00152913586 0.0450999998 0.0 0.000897571037 0.0450999998 0.0 0.0 0.0438416675 0.0 0.0 0.0425833352 0.0 0.0 0.0413249992 0.0 0.0 0.0400666669 0.0 0.0 0.0388083346 0.0 0.0 0.0375499986 0.0 0.0 0.0362916663 0.0 0.0 0.035033334 0.0 0.0 0.0337750018 0.0 0.0 0.0325166658 0.0 0.0 0.0312583335 0.0 0.00975988153 0.0455478057 0.0 0.00982092042 0.045991905 0.0 0.00992209092 0.0464286096 0.0 0.010062553 0.046854306 0.0 0.0102411434 0.0472654663 0.0 0.0104563832 0.0476586856 0.0 0.0107064871 0.0480307005 0.0 0.0109893847 0.0483784303 0.0 0.0113027301 0.0486989953 0.0 0.0116439275 0.0489897393 0.0 0.0120101506 0.0492482521 0.0 0.012398364 0.0494723916 0.0 0.0128053501 0.049660299 0.0 0.0132277375 0.0498104207 0.0 0.0136620263 0.0499215089 0.0 0.0141046178 0.049992647 0.0 0.0145518444 0.0500232428 0.0 0.0149999997 0.0506606586 0.0 0.0149999997 0.0513082705 0.0 0.0149999997 0.0519558825 0.0 0.0149999997 0.0526034944 0.0 0.0149999997 0.05325111 0.0 0.0149999997 0.0538987219 0.0 0.0149999997 0.0545463338 0.0 0.0149999997 0.0551939458 0.0 0.0149999997 0.0558415577 0.0 0.0149999997 0.0564891733 0.0 0.0149999997 0.0571367852 0.0 0.0149999997 0.0577843972 0.0 0.0149999997 0.0584320091 0.0 0.0149999997 0.059079621 0.0 0.0131249996 0.0599999987 0.0 0.0112500004 0.0599999987 0.0 0.00937500037 0.0599999987 0.0 0.00749999983 0.0599999987 0.0 0.00562500022 0.0599999987 0.0 0.00374999992 0.0599999987 0.0 0.00187499996 0.0599999987 0.0 0.0 0.0587583333 0.0 0.0 0.057516668 0.0 0.0 0.0562749989 0.0 0.0 0.0550333336 0.0 0.0 0.0537916683 0.0 0.0 0.0525499992 0.0 0.0 0.0513083339 0.0 0.0 0.0500666648 0.0 0.0 0.0488249995 0.0 0.0 0.0475833341 0.0 0.0 0.0463416651 0.0 0.0195713751 0.0446894132 0.0 0.0195200555 0.0442816839 0.0 0.0194349196 0.0438796543 0.0 0.0193165597 0.0434861258 0.0 0.0191658027 0.0431038328 0.0 0.0189836938 0.0427354388 0.0 0.0187715068 0.0423835143 0.0 0.0185307153 0.0420505032 0.0 0.0182629973 0.0417387299 0.0 0.0179702155 0.0414503627 0.0 0.0176544115 0.041187413 0.0 0.0173177831 0.0409517065 0.0 0.0169626754 0.0407448858 0.0 0.0165915582 0.0405683964 0.0 0.0162070207 0.040423464 0.0 0.0158117376 0.0403110944 0.0 0.0154084601 0.0402320772 0.0 0.0168750007 0.0299999993 0.0 0.0187500007 0.0299999993 0.0 0.0206250008 0.0299999993 0.0 0.0225000009 0.0299999993 0.0 0.0243749991 0.0299999993 0.0 0.0262499992 0.0299999993 0.0 0.0281249993 0.0299999993 0.0 0.0299999993 0.0312583335 0.0 0.0299999993 0.0325166658 0.0 0.0299999993 0.0337750018 0.0 0.0299999993 0.035033334 0.0 0.0299999993 0.0362916663 0.0 0.0299999993 0.0375499986 0.0 0.0299999993 0.0388083346 0.0 0.0299999993 0.0400666669 0.0 0.0299999993 0.0413249992 0.0 0.0299999993 0.0425833352 0.0 0.0299999993 0.0438416675 0.0 0.0290404987 0.0450999998 0.0 0.0283653568 0.0450999998 0.0 0.0276902169 0.0450999998 0.0 0.0270150751 0.0450999998 0.0 0.0263399333 0.0450999998 0.0 0.0256647933 0.0450999998 0.0 0.0249896515 0.0450999998 0.0 0.0243145097 0.0450999998 0.0 0.0236393698 0.0450999998 0.0 0.0229642279 0.0450999998 0.0 0.0222890861 0.0450999998 0.0 0.0216139443 0.0450999998 0.0 0.0209388044 0.0450999998 0.0 0.0202636626 0.0450999998 0.0 0.0281249993 0.0599999987 0.0 0.0262499992 0.0599999987 0.0 0.0243749991 0.0599999987 0.0 0.0225000009 0.0599999987 0.0 0.0206250008 0.0599999987 0.0 0.0187500007 0.0599999987 0.0 0.0168750007 0.0599999987 0.0 0.0154084601 0.049967926 0.0 0.0158117376 0.0498889051 0.0 0.0162070207 0.0497765355 0.0 0.0165915582 0.0496316031 0.0 0.0169626754 0.0494551137 0.0 0.0173177831 0.049248293 0.0 0.0176544115 0.0490125902 0.0 0.0179702155 0.0487496369 0.0 0.0182629973 0.0484612696 0.0 0.0185307153 0.0481494963 0.0 0.0187715068 0.0478164889 0.0 0.0189836938 0.0474645607 0.0 0.0191658027 0.0470961705 0.0 0.0193165597 0.0467138775 0.0 0.0194349196 0.0463203453 0.0 0.0195200555 0.0459183156 0.0 0.0195713751 0.0455105864 0.0 0.0299999993 0.0463416651 0.0 0.0299999993 0.0475833341 0.0 0.0299999993 0.0488249995 0.0 0.0299999993 0.0500666648 0.0 0.0299999993 0.0513083339 0.0 0.0299999993 0.0525499992 0.0 0.0299999993 0.0537916683 0.0 0.0299999993 0.0550333336 0.0 0.0299999993 0.0562749989 0.0 0.0299999993 0.057516668 0.0 0.0299999993 0.0587583333 0.0 0.0 0.0270000007 0.0 0.0 0.0240000002 0.0 0.0 0.0209999997 0.0 0.0 0.0179999992 0.0 0.0 0.0149999997 0.0 0.0 0.0120000001 0.0 0.0 0.00899999961 0.0 0.0 0.00600000005 0.0 0.0 0.00300000003 0.0 0.00187499996 0.0 0.0 0.00374999992 0.0 0.0 0.00562500022 0.0 0.0 0.00749999983 0.0 0.0 0.00937500037 0.0 0.0 0.0112500004 0.0 0.0 0.0131249996 0.0 0.0 0.0149999997 0.0 0.0 0.0168750007 0.0 0.0 0.0187500007 0.0 0.0 0.0206250008 0.0 0.0 0.0225000009 0.0 0.0 0.0243749991 0.0 0.0 0.0262499992 0.0 0.0 0.0281249993 0.0 0.0 0.0299999993 0.00300000003 0.0 0.0299999993 0.00600000005 0.0 0.0299999993 0.00899999961 0.0 0.0299999993 0.0120000001 0.0 0.0299999993 0.0149999997 0.0 0.0299999993 0.0179999992 0.0 0.0299999993 0.0209999997 0.0 0.0299999993 0.0240000002 0.0 0.0299999993 0.0270000007 0.0 0.0299999993 0.063000001 0.0 0.0299999993 0.0659999996 0.0 0.0299999993 0.0689999983 0.0 0.0299999993 0.0719999969 0.0 0.0299999993 0.075000003 0.0 0.0299999993 0.0780000016 0.0 0.0299999993 0.0810000002 0.0 0.0299999993 0.0839999989 0.0 0.0299999993 0.0869999975 0.0 0.0281249993 0.0900000036 0.0 0.0262499992 0.0900000036 0.0 0.0243749991 0.0900000036 0.0 0.0225000009 0.0900000036 0.0 0.0206250008 0.0900000036 0.0 0.0187500007 0.0900000036 0.0 0.0168750007 0.0900000036 0.0 0.0149999997 0.0900000036 0.0 0.0131249996 0.0900000036 0.0 0.0112500004 0.0900000036 0.0 0.00937500037 0.0900000036 0.0 0.00749999983 0.0900000036 0.0 0.00562500022 0.0900000036 0.0 0.00374999992 0.0900000036 0.0 0.00187499996 0.0900000036 0.0 0.0 0.0869999975 0.0 0.0 0.0839999989 0.0 0.0 0.0810000002 0.0 0.0 0.0780000016 0.0 0.0 0.075000003 0.0 0.0 0.0719999969 0.0 0.0 0.0689999983 0.0 0.0 0.0659999996 0.0 0.0 0.063000001 0.0 0.00240605418 0.0317476094 0.0 0.0132285897 0.0308372527 0.0 0.0114639541 0.0308285281 0.0 0.00970989279 0.0308664478 0.0 0.00796741433 0.030946292 0.0 0.00622726884 0.0310834199 0.0 0.00444168784 0.0313186944 0.0 0.0115238708 0.0404538177 0.0 0.0110589247 0.0399643853 0.0 0.0105802957 0.0394543298 0.0 0.0100896806 0.0389274582 0.0 0.00958756451 0.0383866653 0.0 0.00907252356 0.0378334895 0.0 0.00854044221 0.0372676216 0.0 0.00798357651 0.0366861634 0.0 0.00738931261 0.0360825956 0.0 0.00673822826 0.0354451761 0.0 0.00600026548 0.0347540006 0.0 0.00512524834 0.0339741185 0.0 0.00401390065 0.0330347866 0.0 0.000793838175 0.0438955426 0.0 0.000772442494 0.0426918976 0.0 0.000783006602 0.0414899141 0.0 0.000811753387 0.0402907245 0.0 0.000856733182 0.0390956625 0.0 0.000921554572 0.037906155 0.0 0.00101479655 0.0367233306 0.0 0.00115271518 0.0355465077 0.0 0.00136729016 0.0343677737 0.0 0.00172855402 0.0331514254 0.0 0.0133339632 0.0315873995 0.0 0.0134397261 0.0323022977 0.0 0.0135442559 0.032998085 0.0 0.0136464294 0.0336812399 0.0 0.013745822 0.0343553573 0.0 0.013842525 0.0350228548 0.0 0.0139368745 0.0356853306 0.0 0.0140292263 0.0363436677 0.0 0.0141198216 0.0369979888 0.0 0.0142087657 0.0376475193 0.0 0.0142960874 0.0382902175 0.0 0.0143820234 0.0389216021 0.0 0.0144678745 0.0395311117 0.0 0.0116815548 0.0316202343 0.0 0.011899055 0.0323765688 0.0 0.0121123437 0.033103589 0.0 0.0123189483 0.0338073969 0.0 0.0125182495 0.0344934613 0.0 0.0127108386 0.0351662561 0.0 0.0128977867 0.0358290039 0.0 0.0130801173 0.0364835784 0.0 0.0132585336 0.0371304527 0.0 0.0134333326 0.0377685912 0.0 0.0136044715 0.0383952036 0.0 0.0137717454 0.0390052013 0.0 0.0139350798 0.0395906046 0.0 0.0100520272 0.0317044854 0.0 0.010392216 0.0325013697 0.0 0.0107216369 0.0332574546 0.0 0.01103618 0.0339790136 0.0 0.0113357538 0.0346737355 0.0 0.0116223767 0.0353484601 0.0 0.011898635 0.0360082686 0.0 0.0121667851 0.0366562307 0.0 0.0124283545 0.03
[...]
<PointData>
<DataArray Name="displ" NumberOfComponents="3" type="Float32" format="ascii">-4.591021242773784e-05 0.0005544624027716424 0.0 -6.238910344819198e-05 0.0005718592297658952 0.0 8.595700646684539e-06 0.0007105680172787292 0.0 -1.7767625064303406e-06 0.0007106722289346062 0.0 -2.5304215378452527e-05 0.000595193999697802 0.0 -6.821018220519592e-05 0.0008699520271795778 0.0 -6.761915963371424e-05 0.0008846634140426239 0.0 -5.522866547002978e-05 0.0008272623827523996 0.0 -6.519745593225184e-05 0.000619036620695474 0.0 -0.00011330207147293238 0.0007324158174301762 0.0 -0.00015009129388159783 0.0007009736684575815 0.0 -8.516214873616276e-05 0.0008437833949205204 0.0 -2.5251146503358682e-06 0.00040961401998782583 0.0 -3.499974745762356e-05 0.0004242064503483234 0.0 -0.00010080587026386116 0.001045659039971067 0.0 -6.321888629723233e-05 0.0010266600125294228 0.0 -3.0158225513131086e-05 0.0005931819877493581 0.0 -3.1319238999723633e-05 0.000591315779996956 0.0 -3.447919563188867e-05 0.0005863519323938357 0.0 -3.938231089565213e-05 0.0005788683658272983 0.0 -4.2222264440129106e-05 0.0005698605969917842 0.0 -4.296846916973653e-05 0.0005585095675338586 0.0 -4.637235452743981e-05 0.0005540871279237454 0.0 -4.80335939550709e-05 0.0005597621544623907 0.0 -4.696828604187419e-05 0.0005568237906792364 0.0 -4.905974951152858e-05 0.0005608640644591795 0.0 -4.92902550935786e-05 0.0005629615573366894 0.0 -5.042546190754725e-05 0.000566997487461711 0.0 -5.1724910732674566e-05 0.0005675467078141779 0.0 -5.0031824387128883e-05 0.0005670226282783469 0.0 -5.1210847316749085e-05 0.000565148254342128 0.0 -5.01076169741462e-05 0.0005693173677118545 0.0 -5.184430312029868e-05 0.0005648544003616274 0.0 -5.145629777775024e-05 0.0005692645968228077 0.0 -5.495543653929797e-05 0.0005699076758134384 0.0 -4.8788506835705615e-05 0.0005682555717747376 0.0 -5.94166248243987e-05 0.0005612620354718873 0.0 -4.314335841790957e-05 0.0005712044027476279 0.0 -3.150640257089667e-05 0.0005700504558670107 0.0 -2.9067077303098694e-05 0.0005676952071087914 0.0 -4.6185486599018395e-05 0.0005778675107028751 0.0 -2.684216386905671e-05 0.0005675470709877361 0.0 -3.33295339938182e-05 0.0005953295577432697 0.0 -2.228125721436454e-05 0.0005752458372954892 0.0 -5.273516468508827e-06 0.0005711814773566662 0.0 -1.5761557093093103e-05 0.0005976758324232062 0.0 -8.922144911010592e-06 0.0006021661059803567 0.0 -8.799187109734121e-06 0.0006087180099709997 0.0 -4.843157021927038e-06 0.0006168234488141288 0.0 -1.0848162286646893e-05 0.0006171959810348512 0.0 -1.6624384132766603e-05 0.0006330089438330837 0.0 5.4600912022008464e-06 0.0006046369598630526 0.0 -1.7827608333939487e-05 0.0006809273242420865 0.0 -5.325342753805974e-06 0.0006994462963124739 0.0 -2.213196900723879e-05 0.0007139317519072426 0.0 -5.243133093050216e-06 0.0007188353647680551 0.0 -1.5766973173104108e-05 0.0007176453285575201 0.0 -6.603463108466307e-06 0.0007099216316022486 0.0 -1.023203769499574e-05 0.0007187723715565936 0.0 -1.0035635194900768e-05 0.0007120901335035074 0.0 -1.2669624208098113e-05 0.0007135599382978747 0.0 -8.007738066349797e-06 0.000711652266959066 0.0 -7.952822404068182e-06 0.000710966360140624 0.0 -6.680011176602854e-06 0.0007086595230340909 0.0 -7.170062594637473e-06 0.0007114730553908524 0.0 -4.7660732771074516e-06 0.0007090480189269975 0.0 -2.9765619342849307e-06 0.0007128985619663532 0.0 -6.153488053136791e-06 0.0007068923300168283 0.0 -2.74021641744377e-06 0.0007027434361575032 0.0 -6.459550409383941e-06 0.0006945504551665242 0.0 -8.632727258307764e-06 0.0006848397572386109 0.0 -1.2923227188253742e-05 0.0006780875381731874 0.0 -1.902623105682719e-05 0.0006657107004743044 0.0 -2.4825508091032193e-05 0.0006574896897144899 0.0 -2.430249103232467e-05 0.000646851980074793 0.0 -2.8603082718159095e-05 0.0006344234838219954 0.0 -2.6530908488904004e-05 0.0006244358923229222 0.0 -2.5621462722690192e-05 0.0006156383619549784 0.0 -2.8236870583452833e-05 0.0006034774663896462 0.0 2.7119715442546124e-05 0.000817374644777172 0.0 -1.8079232106546531e-06 0.0008136635233793159 0.0 1.2697919223589005e-05 0.0008019676594453925 0.0 -1.3775552096398538e-06 0.0008367447070143347 0.0 1.3606963817362324e-06 0.0008263278816364418 0.0 -9.872901689647042e-06 0.0008158118377037468 0.0 -2.0470480235304437e-05 0.0008269762424585558 0.0 -1.9474022763863548e-05 0.0008382698464895023 0.0 -2.381996170119703e-05 0.0008404901450877764 0.0 -3.840413763217475e-05 0.0008451933170097685 0.0 -3.202222131477597e-05 0.0008472171332060152 0.0 -4.379979055988059e-05 0.0008549645043423163 0.0 -3.91493750890841e-05 0.0008578808930838776 0.0 -5.623429772227814e-05 0.0008655268962339598 0.0 -5.073545528041698e-05 0.0008652087021612497 0.0 -6.029371294249035e-05 0.0008699947908049798 0.0 -5.77861408614339e-05 0.0008662563450460311 0.0 -6.702576187030068e-05 0.0008684609543477003 0.0 -6.417630768977972e-05 0.0008684903157238435 0.0 -6.79034101818674e-05 0.0008710548425185546 0.0 -6.605167719901687e-05 0.0008680392812477261 0.0 -6.797936598372695e-05 0.0008707174866264523 0.0 -6.547712058833842e-05 0.0008665199828897127 0.0 -6.521632347492516e-05 0.0008707728072261057 0.0 -6.707474616053474e-05 0.000871080015041362 0.0 -6.685195923271113e-05 0.0008688309898108947 0.0 -6.440908734763158e-05 0.000879262324824797 0.0 -6.906336900560518e-05 0.0008781922690722199 0.0 -6.82384611214751e-05 0.0008737910151152459 0.0 -6.898829490355553e-05 0.0008807642393678536 0.0 -6.942518038774452e-05 0.0008802949521315575 0.0 -6.876770983377551e-05 0.0008826922091243788 0.0 -6.678102174973241e-05 0.0008755779208945614 0.0 -6.903946333159819e-05 0.0008623840816496864 0.0 -6.469944368538793e-05 0.0008507173082241471 0.0 -6.295930408709613e-05 0.0008417738535599175 0.0 -6.14977655725558e-05 0.0008352373024494991 0.0 -5.7181576173596817e-05 0.0008285982016816154 0.0 -5.4087102083823354e-05 0.0008146572909822887 0.0 -4.9685946201181896e-05 0.0008097870460759021 0.0 -5.0368032601895626e-05 0.0007945307242961788 0.0 -4.950541578800721e-05 0.0007859342795125505 0.0 -4.417566426034616e-05 0.0007728887255459652 0.0 -3.5551570107949956e-05 0.0007663578721766925 0.0 -3.53091163679472e-05 0.0007537461668445832 0.0 -2.3404681624319174e-05 0.0007409562740624134 0.0 -1.2434185542037827e-05 0.0007339618283930975 0.0 -8.597278733847089e-06 0.0007242968401213048 0.0 -8.101885344676116e-06 0.0007182933338185771 0.0 -0.0001223769956456798 0.0007240231407689007 0.0 -9.507403265491975e-05 0.0007126821844298747 0.0 -0.00013537607825778026 0.0006521051042507543 0.0 -9.340380929982174e-05 0.0006668773681212406 0.0 -9.954594781978956e-05 0.0006395349524541295 0.0 -0.00010907330428717867 0.0006254265798265364 0.0 -0.00010483203265777868 0.0006096342005086633 0.0 -9.78327603903497e-05 0.0006179960657083385 0.0 -9.811709123125596e-05 0.0005962329056625672 0.0 -8.971567391439363e-05 0.0006023778571410922 0.0 -9.058106681235954e-05 0.0005971123408883292 0.0 -8.061666676971102e-05 0.0005916568333941389 0.0 -7.950235411925889e-05 0.000579143634655826 0.0 -7.644262958365222e-05 0.0005831534074539528 0.0 -6.607595344105299e-05 0.0005738223577985656 0.0 -6.635650292418541e-05 0.0005751484803504771 0.0 -4.980937991801569e-05 0.0005650383064477491 0.0 -4.90628140396947e-05 0.0005615194400356466 0.0 -4.995360386716167e-05 0.0005700129177121 0.0 -5.199798897309462e-05 0.0005854992088315416 0.0 -5.490424758285299e-05 0.0005970869273951535 0.0 -5.849991047796537e-05 0.0006059522702190207 0.0 -6.013964332705201e-05 0.0006122047993749516 0.0 -6.253499078361755e-05 0.000617161847686525 0.0 -6.803710200906326e-05 0.0006284023768527607 0.0 -7.085819564721066e-05 0.000642653352051955 0.0 -7.112494287097385e-05 0.0006437312861242639 0.0 -7.576561762599889e-05 0.000663550904422339 0.0 -8.0104963762275e-05 0.0006723121652676054 0.0 -8.290932883422577e-05 0.0006839913538007383 0.0 -8.633143540839725e-05 0.0006933196650000872 0.0 -9.576855374006527e-05 0.0007134457763543357 0.0 -0.00010141607601199834 0.0007009173122236697 0.0 -0.00010721948166087169 0.0007103836447275036 0.0 -0.00011339440257044473 0.0007149068979823407 0.0 -0.00011118028533462506 0.0007312670263034087 0.0 -0.00010951395913757507 0.0007316926759535945 0.0 -0.00011025657445551954 0.000726414583156354 0.0 -0.00010883637645249335 0.0007219536285016866 0.0 -0.00011107532824135057 0.0007346089397678164 0.0 -0.00010765587056301321 0.0007238975731353708 0.0 -0.00011116789602196808 0.0007268774557328528 0.0 -0.00010426049533074396 0.0007266361849875641 0.0 -0.00010201844080210331 0.0007210968042311558 0.0 -0.00010125817490153165 0.0007262933737030672 0.0 -0.00010582300791666635 0.0007247230345467883 0.0 -0.00010831416170239099 0.0007307171528862617 0.0 -0.00010169581171741958 0.0007219143030996854 0.0 -9.424030012260275e-05 0.000727487952750492 0.0 -8.287420883227212e-05 0.0008437606084614027 0.0 -7.873790933374814e-05 0.0008451335528162794 0.0 -7.672734562124403e-05 0.0008470515829257238 0.0 -7.447356335696778e-05 0.0008531306704436206 0.0 -7.1551547324619e-05 0.0008614793142156271 0.0 -7.041553841620213e-05 0.0008721325280623405 0.0 -6.946272199223266e-05 0.0008798370726288403 0.0 -5.945459265912114e-05 0.0008736316900149561 0.0 -8.107394575308511e-05 0.0008651416662556975 0.0 -7.064062207475805e-05 0.000866778810549645 0.0 -7.412711769650176e-05 0.0008605627429249584 0.0 -8.796550947401558e-05 0.0008605759741685903 0.0 -8.815649647939414e-05 0.0008482319298199675 0.0 -8.799306667894218e-05 0.0008400587447725617 0.0 -8.820663996289893e-05 0.0008466937242854657 0.0 -9.855477938722969e-05 0.0008372854632350419 0.0 -9.471610102042394e-05 0.0008209173065685656 0.0 -0.0001033706142586162 0.0008257893216079065 0.0 -9.793914255811004e-05 0.0008066310170293601 0.0 -0.00010585375859530417 0.0007979732677224074 0.0 -0.00011119091904751726 0.0007956347356616162 0.0 -0.00010413345402962587 0.0007454997062091104 0.0 -8.6519220394635e-05 0.0007556857300396683 0.0 -0.00010287145491530083 0.0007343497053258237 0.0 -0.00011344895147525168 0.0007331272536741734 0.0 -0.00011116492480911832 0.0007492668693175481 0.0 -0.00010609071143823255 0.000755004737178385 0.0 -0.00010024286382363306 0.000772943330895544 0.0 -9.706943008413584e-05 0.0007670126483007767 0.0 -9.221232047651793e-05 0.0007838693922437431 0.0 -8.745494634391359e-05 0.0007875523340178622 0.0 -8.757710819075757e-05 0.0008090525512330292 0.0 -8.8300323606558e-05 0.0008155885053070959 0.0 -8.369035863516447e-05 0.0008223197942410666 0.0 -8.536989202735238e-05 0.0008353595386977482 0.0 -2.2221992030648616e-05 0.0005695454442749708 0.0 -2.237732645638218e-05 0.0005500081215428301 0.0 -1.967808592288113e-05 0.0005307101122662047 0.0 -1.637418024764006e-05 0.0005099382154665536 0.0 -1.2292708058316642e-05 0.000492199996723696 0.0 -8.62937732592604e-06 0.000474511353393302 0.0 -6.911402590678625e-06 0.0004578381422732062 0.0 -6.025821787222932e-06 0.00044236313180644323 0.0 -2.9825790560038153e-06 0.0004256076526503869 0.0 -2.9191000755975043e-06 0.00041304570468705487 0.0 -6.085456447205165e-06 0.0004130991979914485 0.0 -8.524188267702584e-06 0.0004152662751978032 0.0 -1.1918248214833319e-05 0.0004128726342883387 0.0 -1.344562486178475e-05 0.00041251943647598825 0.0 -1.5258890792298772e-05 0.000411627095048305 0.0 -1.7950702866012323e-05 0.00041283822997596016 0.0 -2.200257403295828e-05 0.0004130528671476396 0.0 -1.911638941427194e-05 0.00041344733304668734 0.0 -2.389460842814311e-05 0.00041519095841236256 0.0 -2.696477265451916e-05 0.00041726098394455347 0.0 -2.876319488940969e-05 0.00042206857838766827 0.0 -2.892260751596112e-05 0.00042241727034889596 0.0 -3.1522424886880176e-05 0.0004252636159266605 0.0 -3.385303112697575e-05 0.00042551183072292225 0.0 -3.430566957429175e-05 0.000444004820553205 0.0 -3.884212471357724e-05 0.00045935288511770494 0.0 -4.332904698260126e-05 0.00047589897580110674 0.0 -4.7892585470424245e-05 0.0004948082178966232 0.0 -5.0578327877674124e-05 0.0005134600860759943 0.0 -5.2683667200633504e-05 0.0005351767874207598 0.0 -5.2236467806512304e-05 0.0005534497866912708 0.0 -5.475773482445289e-05 0.0005743221627479241 0.0 -5.890973980956713e-05 0.0005959310057550306 0.0 -8.306104565633961e-05 0.0008673637850469344 0.0 -8.656890940472068e-05 0.0008887050980209968 0.0 -8.550375871492663e-05 0.0009001714056769583 0.0 -8.946937525255037e-05 0.0009288200061995729 0.0 -8.854762496499168e-05 0.0009447087029191597 0.0 -9.318962647340808e-05 0.0009615677011605252 0.0 -9.262981191348196e-05 0.000982996551777402 0.0 -9.812745881998716e-05 0.0010053344996108246 0.0 -0.00010051051726420159 0.0010242876092345851 0.0 -9.863635605997703e-05 0.0010457153988067303 0.0 -9.591876043830075e-05 0.001042484904456475 0.0 -9.484854170129028e-05 0.001042415519847345 0.0 -9.118655684205881e-05 0.0010406230341283495 0.0 -8.97753809494657e-05 0.0010399660933022663 0.0 -8.538518229385222e-05 0.0010388113929120147 0.0 -8.550838616923973e-05 0.001038074899534201 0.0 -8.159581305870025e-05 0.00103758990451197 0.0 -7.743075499581138e-05 0.0010364695860492522 0.0 -7.627947326020395e-05 0.0010366058777341017 0.0 -7.426203439578688e-05 0.0010349724962595654 0.0 -7.069257412437314e-05 0.0010342003603375663 0.0 -7.132975715339709e-05 0.0010318862138954566 0.0 -6.75012458534117e-05 0.001031309808117131 0.0 -6.538696861775416e-05 0.0010302617068305758 0.0 -6.199101123950085e-05 0.0010128729651060083 0.0 -6.384229685553628e-05 0.0009884724580526319 0.0 -6.423434727056024e-05 0.0009747328563660179 0.0 -6.281297868161927e-05 0.0009560021213009936 0.0 -6.002633876993339e-05 0.0009367084281709761 0.0 -5.856522344143478e-05 0.0009162226250507098 0.0 -5.874251153630485e-05 0.0008950714097085684 0.0 -5.7640168832822347e-05 0.0008706943024230433 0.0 -5.747453555985056e-05 0.0008480253073268316 0.0 -3.062636489017346e-05 0.0006054929828026256 0.0 -4.4655820494017514e-05 0.0005578608406181589 0.0 -4.364620767028122e-05 0.0005647004912219181 0.0 -4.3325728863494295e-05 0.000571878358534919 0.0 -3.891439848727946e-05 0.0005833061005150923 0.0 -3.68020533838674e-05 0.0005921259478457239 0.0 -3.558588064852004e-05 0.0005971029399814381 0.0 -3.2659051911054326e-05 0.0005863660061019482 0.0 -3.0936158487374385e-05 0.0005986127263791801 0.0 -4.115595499011733e-05 0.0005983880096314877 0.0 -4.22239178687949e-05 0.0006072412312265555 0.0 -3.793727657486888e-05 0.0006163635936396159 0.0 -4.192776920550647e-05 0.0006238828255356275 0.0 -3.761816266889873e-05 0.0006252134308978767 0.0 -3.899255338938062e-05 0.0006210991315083637 0.0 -4.058375229582667e-05 0.0006212027701615339 0.0 -3.872838812117858e-05 0.0006210868509030077 0.0 -3.849984394326566e-05 0.000619465626144355 0.0 -3.485554455191877e-05 0.0006155475637097063 0.0 -3.5944613302956984e-05 0.000610953360766815 0.0 -3.396419536857868e-06 0.0007014379738694491 0.0 -6.4140775865483445e-06 0.0006934470805524561 0.0 -6.438154995191412e-06 0.000685747400095395 0.0 -1.0407064624516788e-05 0.0006740609796617778 0.0 -1.750435735542049e-05 0.000666044479217732 0.0 -1.883268938064206e-05 0.000658932249126386 0.0 -2.571417332631861e-05 0.0006436429271583905 0.0 -2.5856833239274705e-05 0.000639336249964654 0.0 -2.756758071610331e-05 0.0006273794375863978 0.0 -3.105950641685828e-05 0.000616910554148808 0.0 -4.6298891250382594e-05 0.0005611068183693124 0.0 -4.609978855128438e-05 0.0005600289970168886 0.0 -4.9206947597441916e-05 0.0005632283729629433 0.0 -4.8209604437774834e-05 0.0005620256618044453 0.0 -4.9046333504661656e-05 0.0005654106919551492 0.0 -4.717684237716243e-05 0.0005660185754920671 0.0 -5.159438087845154e-05 0.0005665716825456435 0.0 -4.566038484530054e-05 0.0005678055012517945 0.0 -5.151462691933514e-05 0.0005686796990824185 0.0 -4.8862445864083935e-05 0.0005690407675556656 0.0 -5.275329349169475e-05 0.0005703782511601066 0.0 -5.6805125090600946e-05 0.0005659036132592157 0.0 -5.215886723528205e-05 0.000569522682091871 0.0 -4.5959509173906866e-05 0.0005635014708000897 0.0 -4.675023419786403e-05 0.0005661482713172252 0.0 -4.6317875551645654e-05 0.0005653834918939695 0.0 -4.6743703210746045e-05 0.0005698860137449301 0.0 -4.5725339653389676e-05 0.0005688834706468612 0.0 -4.602748459266155e-05 0.0005690785062677966 0.0 -4.9712280369568735e-05 0.0005687819050038194 0.0 -5.1193544830431594e-05 0.0005731364800037063 0.0 -5.033023573716459e-05 0.0005674127105968683 0.0 -4.902702790572841e-05 0.0005691714086727189 0.0 -4.6937280332100775e-05 0.0005697025147457595 0.0 -4.603881844099546e-05 0.0005741949496725681 0.0 -4.991185721602797e-05 0.0005744868480250413 0.0 -4.370157136582086e-05 0.0005753918010156558 0.0 -4.521125464069521e-05 0.0005737135696345999 0.0 -4.553341981103385e-05 0.0005773035264867111 0.0 -4.525356984391693e-05 0.0005751803228573398 0.0 -4.822559580156336e-05 0.0005748803890824893 0.0 -4.627432887573683e-05 0.0005752576538826432 0.0 -4.625579070658459e-05 0.0005746571065597278 0.0 -4.915733850860576e-05 0.0005752153614093116 0.0 -5.024112186915113e-05 0.0005766259764469604 0.0 -4.713459165245862e-05 0.0005743325939782821 0.0 -4.8642921673083157e-05 0.0005728186342926957 0.0 -4.4151148681094344e-05 0.0005704751383881797 0.0 -4.8739151696588656e-05 0.0005710415958699917 0.0 -4.1078064697558057e-05 0.0005870415282051524 0.0 -4.458704293076713e-05 0.000587373009746818 0.0 -4.258374365926471e-05 0.0005872317882544885 0.0 -4.3604718309753046e-05 0.0005900117930183622 0.0 -4.458103869516054e-05 0.0005875893070430211 0.0 -4.6224058283409176e-05 0.0005871220188058653 0.0 -4.93879092838485e-05 0.0005871277575064855 0.0 -4.324024889062766e-05 0.0005788814625124927 0.0 -4.558161970900054e-05 0.0005806770426772818 0.0 -4.62919140816015e-05 0.000580096225392325 0.0 -4.2969025053045814e-05 0.0005732755744157672 0.0 -3.9785311195583855e-05 0.0005758805761491264 0.0 -3.932731599796753e-05 0.0005691537798641213 0.0 -4.019866702051124e-05 0.0005969117170449991 0.0 -3.973336654829258e-05 0.0005990956472523849 0.0 -4.096864635982359e-05 0.0006008708452080978 0.0 -4.322429483236273e-05 0.0006008637941584613 0.0 -4.41590445773869e-05 0.0005993447251645303 0.0 -4.576640965884185e-05 0.0006012634192111645 0.0 -4.475714219912469e-05 0.0005977598746929145 0.0 -4.4797847874228805e-05 0.0005935893377584798 0.0 -4.738828839527939e-05 0.0005919229395512488 0.0 -4.511137153540105e-05 0.0005862194739499073 0.0 -4.9697720909082906e-05 0.0005870297602361583 0.0 -3.976695160006777e-05 0.0005742153916343003 0.0 -4.491236084434731e-05 0.0005805169393956088 0.0 -3.696805756426664e-05 0.0006046679749768363 0.0 -3.8141392903466225e-05 0.0006095281330571598 0.0 -3.97181937464055e-05 0.0006115327551062076 0.0 -4.166315387891214e-05 0.0006148678852005701 0.0 -4.189365875792999e-05 0.0006156363042115199 0.0 -4.0690123601828444e-05 0.0006145403441090675 0.0 -4.224969450268346e-05 0.0006106423553640143 0.0 -4.5399868322116795e-05 0.0006094090380820512 0.0 -4.476888025097703e-05 0.0006046774166028995 0.0 -3.7219263113244514e-05 0.0006002270844247947 0.0 -3.9503264374160155e-05 0.0005912203912222662 0.0 -4.242089192219487e-05 0.0005871525083715363 0.0 -3.152421119287015e-05 0.0005708927794418739 0.0 -3.299715415595653e-05 0.000597322070653676 0.0 -2.2658440076444587e-05 0.0005988350613943417 0.0 -1.6403465874807836e-05 0.0006134559235662318 0.0 -1.6373940035387422e-05 0.000616903988640389 0.0 -1.2120750235642251e-05 0.0006283516378069227 0.0 -7.2703265235586905e-06 0.0006427478867782324 0.0 -1.6648836809606072e-05 0.000670800233810426 0.0 -1.0302156083526242e-05 0.0006871102774237528 0.0 -5.267398971539241e-06 0.0006997084894618528 0.0 -1.7621219581021605e-05 0.0007100019101952937 0.0 -3.0713517551439966e-05 0.0006017639815642369 0.0 -3.067784380983666e-05 0.0006163317980867894 0.0 -1.7737348362907317e-05 0.0006226184326731229 0.0 -2.8452507850794886e-05 0.0006422701932103417 0.0 -1.1528907713630432e-05 0.0006603804076743871 0.0 -1.9418293924679774e-05 0.0006720500772921985 0.0 -9.193994635606973e-06 0.0006771075193729003 0.0 -7.833227706059674e-06 0.0006839122239335954 0.0 -1.2932416186202464e-05 0.0007025773995727879 0.0 -1