<?xml version="1.0" ?>
<VTKFile type="UnstructuredGrid" version="0.1" byte_order="LittleEndian">
<UnstructuredGrid>
<Piece NumberOfPoints="1500" NumberOfCells="1404">
<Points>
<DataArray type="Float32" format="ascii" NumberOfComponents="3">0.0149999997 0.0299999993 0.0 0.0149999997 0.0401869528 0.0 0.00973947905 0.0450999998 0.0 0.0 0.0450999998 0.0 0.0 0.0299999993 0.0 0.0149999997 0.0500130467 0.0 0.0149999997 0.0599999987 0.0 0.0 0.0599999987 0.0 0.0299999993 0.0299999993 0.0 0.0299999993 0.0450999998 0.0 0.0195885208 0.0450999998 0.0 0.0299999993 0.0599999987 0.0 0.0 0.0 0.0 0.0299999993 0.0 0.0 0.0299999993 0.0900000036 0.0 0.0 0.0900000036 0.0 0.00187499996 0.0299999993 0.0 0.00374999992 0.0299999993 0.0 0.00562500022 0.0299999993 0.0 0.00749999983 0.0299999993 0.0 0.00937500037 0.0299999993 0.0 0.0112500004 0.0299999993 0.0 0.0131249996 0.0299999993 0.0 0.0149999997 0.0309388097 0.0 0.0149999997 0.0315993913 0.0 0.0149999997 0.0322599746 0.0 0.0149999997 0.0329205543 0.0 0.0149999997 0.0335811377 0.0 0.0149999997 0.0342417173 0.0 0.0149999997 0.0349023007 0.0 0.0149999997 0.0355628803 0.0 0.0149999997 0.0362234637 0.0 0.0149999997 0.0368840471 0.0 0.0149999997 0.0375446267 0.0 0.0149999997 0.0382052101 0.0 0.0149999997 0.0388657898 0.0 0.0149999997 0.0395263731 0.0 0.0145518444 0.0401767567 0.0 0.0141046178 0.0402073525 0.0 0.0136620263 0.0402784906 0.0 0.0132277375 0.0403895788 0.0 0.0128053501 0.0405397005 0.0 0.012398364 0.0407276079 0.0 0.0120101506 0.0409517474 0.0 0.0116439275 0.0412102602 0.0 0.0113027301 0.0415010042 0.0 0.0109893847 0.0418215692 0.0 0.0107064871 0.042169299 0.0 0.0104563832 0.0425413139 0.0 0.0102411434 0.0429345332 0.0 0.010062553 0.0433456935 0.0 0.00992209092 0.0437713899 0.0 0.00982092042 0.0442080945 0.0 0.00975988153 0.0446521938 0.0 0.00910791382 0.0450999998 0.0 0.00847634859 0.0450999998 0.0 0.0078447843 0.0450999998 0.0 0.00721321953 0.0450999998 0.0 0.00658165431 0.0450999998 0.0 0.00595008954 0.0450999998 0.0 0.00531852478 0.0450999998 0.0 0.00468696002 0.0450999998 0.0 0.00405539526 0.0450999998 0.0 0.00342383026 0.0450999998 0.0 0.0027922655 0.0450999998 0.0 0.00216070074 0.0450999998 0.0 0.00152913586 0.0450999998 0.0 0.000897571037 0.0450999998 0.0 0.0 0.0438416675 0.0 0.0 0.0425833352 0.0 0.0 0.0413249992 0.0 0.0 0.0400666669 0.0 0.0 0.0388083346 0.0 0.0 0.0375499986 0.0 0.0 0.0362916663 0.0 0.0 0.035033334 0.0 0.0 0.0337750018 0.0 0.0 0.0325166658 0.0 0.0 0.0312583335 0.0 0.00975988153 0.0455478057 0.0 0.00982092042 0.045991905 0.0 0.00992209092 0.0464286096 0.0 0.010062553 0.046854306 0.0 0.0102411434 0.0472654663 0.0 0.0104563832 0.0476586856 0.0 0.0107064871 0.0480307005 0.0 0.0109893847 0.0483784303 0.0 0.0113027301 0.0486989953 0.0 0.0116439275 0.0489897393 0.0 0.0120101506 0.0492482521 0.0 0.012398364 0.0494723916 0.0 0.0128053501 0.049660299 0.0 0.0132277375 0.0498104207 0.0 0.0136620263 0.0499215089 0.0 0.0141046178 0.049992647 0.0 0.0145518444 0.0500232428 0.0 0.0149999997 0.0506606586 0.0 0.0149999997 0.0513082705 0.0 0.0149999997 0.0519558825 0.0 0.0149999997 0.0526034944 0.0 0.0149999997 0.05325111 0.0 0.0149999997 0.0538987219 0.0 0.0149999997 0.0545463338 0.0 0.0149999997 0.0551939458 0.0 0.0149999997 0.0558415577 0.0 0.0149999997 0.0564891733 0.0 0.0149999997 0.0571367852 0.0 0.0149999997 0.0577843972 0.0 0.0149999997 0.0584320091 0.0 0.0149999997 0.059079621 0.0 0.0131249996 0.0599999987 0.0 0.0112500004 0.0599999987 0.0 0.00937500037 0.0599999987 0.0 0.00749999983 0.0599999987 0.0 0.00562500022 0.0599999987 0.0 0.00374999992 0.0599999987 0.0 0.00187499996 0.0599999987 0.0 0.0 0.0587583333 0.0 0.0 0.057516668 0.0 0.0 0.0562749989 0.0 0.0 0.0550333336 0.0 0.0 0.0537916683 0.0 0.0 0.0525499992 0.0 0.0 0.0513083339 0.0 0.0 0.0500666648 0.0 0.0 0.0488249995 0.0 0.0 0.0475833341 0.0 0.0 0.0463416651 0.0 0.0195713751 0.0446894132 0.0 0.0195200555 0.0442816839 0.0 0.0194349196 0.0438796543 0.0 0.0193165597 0.0434861258 0.0 0.0191658027 0.0431038328 0.0 0.0189836938 0.0427354388 0.0 0.0187715068 0.0423835143 0.0 0.0185307153 0.0420505032 0.0 0.0182629973 0.0417387299 0.0 0.0179702155 0.0414503627 0.0 0.0176544115 0.041187413 0.0 0.0173177831 0.0409517065 0.0 0.0169626754 0.0407448858 0.0 0.0165915582 0.0405683964 0.0 0.0162070207 0.040423464 0.0 0.0158117376 0.0403110944 0.0 0.0154084601 0.0402320772 0.0 0.0168750007 0.0299999993 0.0 0.0187500007 0.0299999993 0.0 0.0206250008 0.0299999993 0.0 0.0225000009 0.0299999993 0.0 0.0243749991 0.0299999993 0.0 0.0262499992 0.0299999993 0.0 0.0281249993 0.0299999993 0.0 0.0299999993 0.0312583335 0.0 0.0299999993 0.0325166658 0.0 0.0299999993 0.0337750018 0.0 0.0299999993 0.035033334 0.0 0.0299999993 0.0362916663 0.0 0.0299999993 0.0375499986 0.0 0.0299999993 0.0388083346 0.0 0.0299999993 0.0400666669 0.0 0.0299999993 0.0413249992 0.0 0.0299999993 0.0425833352 0.0 0.0299999993 0.0438416675 0.0 0.0290404987 0.0450999998 0.0 0.0283653568 0.0450999998 0.0 0.0276902169 0.0450999998 0.0 0.0270150751 0.0450999998 0.0 0.0263399333 0.0450999998 0.0 0.0256647933 0.0450999998 0.0 0.0249896515 0.0450999998 0.0 0.0243145097 0.0450999998 0.0 0.0236393698 0.0450999998 0.0 0.0229642279 0.0450999998 0.0 0.0222890861 0.0450999998 0.0 0.0216139443 0.0450999998 0.0 0.0209388044 0.0450999998 0.0 0.0202636626 0.0450999998 0.0 0.0281249993 0.0599999987 0.0 0.0262499992 0.0599999987 0.0 0.0243749991 0.0599999987 0.0 0.0225000009 0.0599999987 0.0 0.0206250008 0.0599999987 0.0 0.0187500007 0.0599999987 0.0 0.0168750007 0.0599999987 0.0 0.0154084601 0.049967926 0.0 0.0158117376 0.0498889051 0.0 0.0162070207 0.0497765355 0.0 0.0165915582 0.0496316031 0.0 0.0169626754 0.0494551137 0.0 0.0173177831 0.049248293 0.0 0.0176544115 0.0490125902 0.0 0.0179702155 0.0487496369 0.0 0.0182629973 0.0484612696 0.0 0.0185307153 0.0481494963 0.0 0.0187715068 0.0478164889 0.0 0.0189836938 0.0474645607 0.0 0.0191658027 0.0470961705 0.0 0.0193165597 0.0467138775 0.0 0.0194349196 0.0463203453 0.0 0.0195200555 0.0459183156 0.0 0.0195713751 0.0455105864 0.0 0.0299999993 0.0463416651 0.0 0.0299999993 0.0475833341 0.0 0.0299999993 0.0488249995 0.0 0.0299999993 0.0500666648 0.0 0.0299999993 0.0513083339 0.0 0.0299999993 0.0525499992 0.0 0.0299999993 0.0537916683 0.0 0.0299999993 0.0550333336 0.0 0.0299999993 0.0562749989 0.0 0.0299999993 0.057516668 0.0 0.0299999993 0.0587583333 0.0 0.0 0.0270000007 0.0 0.0 0.0240000002 0.0 0.0 0.0209999997 0.0 0.0 0.0179999992 0.0 0.0 0.0149999997 0.0 0.0 0.0120000001 0.0 0.0 0.00899999961 0.0 0.0 0.00600000005 0.0 0.0 0.00300000003 0.0 0.00187499996 0.0 0.0 0.00374999992 0.0 0.0 0.00562500022 0.0 0.0 0.00749999983 0.0 0.0 0.00937500037 0.0 0.0 0.0112500004 0.0 0.0 0.0131249996 0.0 0.0 0.0149999997 0.0 0.0 0.0168750007 0.0 0.0 0.0187500007 0.0 0.0 0.0206250008 0.0 0.0 0.0225000009 0.0 0.0 0.0243749991 0.0 0.0 0.0262499992 0.0 0.0 0.0281249993 0.0 0.0 0.0299999993 0.00300000003 0.0 0.0299999993 0.00600000005 0.0 0.0299999993 0.00899999961 0.0 0.0299999993 0.0120000001 0.0 0.0299999993 0.0149999997 0.0 0.0299999993 0.0179999992 0.0 0.0299999993 0.0209999997 0.0 0.0299999993 0.0240000002 0.0 0.0299999993 0.0270000007 0.0 0.0299999993 0.063000001 0.0 0.0299999993 0.0659999996 0.0 0.0299999993 0.0689999983 0.0 0.0299999993 0.0719999969 0.0 0.0299999993 0.075000003 0.0 0.0299999993 0.0780000016 0.0 0.0299999993 0.0810000002 0.0 0.0299999993 0.0839999989 0.0 0.0299999993 0.0869999975 0.0 0.0281249993 0.0900000036 0.0 0.0262499992 0.0900000036 0.0 0.0243749991 0.0900000036 0.0 0.0225000009 0.0900000036 0.0 0.0206250008 0.0900000036 0.0 0.0187500007 0.0900000036 0.0 0.0168750007 0.0900000036 0.0 0.0149999997 0.0900000036 0.0 0.0131249996 0.0900000036 0.0 0.0112500004 0.0900000036 0.0 0.00937500037 0.0900000036 0.0 0.00749999983 0.0900000036 0.0 0.00562500022 0.0900000036 0.0 0.00374999992 0.0900000036 0.0 0.00187499996 0.0900000036 0.0 0.0 0.0869999975 0.0 0.0 0.0839999989 0.0 0.0 0.0810000002 0.0 0.0 0.0780000016 0.0 0.0 0.075000003 0.0 0.0 0.0719999969 0.0 0.0 0.0689999983 0.0 0.0 0.0659999996 0.0 0.0 0.063000001 0.0 0.00240605418 0.0317476094 0.0 0.0132285897 0.0308372527 0.0 0.0114639541 0.0308285281 0.0 0.00970989279 0.0308664478 0.0 0.00796741433 0.030946292 0.0 0.00622726884 0.0310834199 0.0 0.00444168784 0.0313186944 0.0 0.0115238708 0.0404538177 0.0 0.0110589247 0.0399643853 0.0 0.0105802957 0.0394543298 0.0 0.0100896806 0.0389274582 0.0 0.00958756451 0.0383866653 0.0 0.00907252356 0.0378334895 0.0 0.00854044221 0.0372676216 0.0 0.00798357651 0.0366861634 0.0 0.00738931261 0.0360825956 0.0 0.00673822826 0.0354451761 0.0 0.00600026548 0.0347540006 0.0 0.00512524834 0.0339741185 0.0 0.00401390065 0.0330347866 0.0 0.000793838175 0.0438955426 0.0 0.000772442494 0.0426918976 0.0 0.000783006602 0.0414899141 0.0 0.000811753387 0.0402907245 0.0 0.000856733182 0.0390956625 0.0 0.000921554572 0.037906155 0.0 0.00101479655 0.0367233306 0.0 0.00115271518 0.0355465077 0.0 0.00136729016 0.0343677737 0.0 0.00172855402 0.0331514254 0.0 0.0133339632 0.0315873995 0.0 0.0134397261 0.0323022977 0.0 0.0135442559 0.032998085 0.0 0.0136464294 0.0336812399 0.0 0.013745822 0.0343553573 0.0 0.013842525 0.0350228548 0.0 0.0139368745 0.0356853306 0.0 0.0140292263 0.0363436677 0.0 0.0141198216 0.0369979888 0.0 0.0142087657 0.0376475193 0.0 0.0142960874 0.0382902175 0.0 0.0143820234 0.0389216021 0.0 0.0144678745 0.0395311117 0.0 0.0116815548 0.0316202343 0.0 0.011899055 0.0323765688 0.0 0.0121123437 0.033103589 0.0 0.0123189483 0.0338073969 0.0 0.0125182495 0.0344934613 0.0 0.0127108386 0.0351662561 0.0 0.0128977867 0.0358290039 0.0 0.0130801173 0.0364835784 0.0 0.0132585336 0.0371304527 0.0 0.0134333326 0.0377685912 0.0 0.0136044715 0.0383952036 0.0 0.0137717454 0.0390052013 0.0 0.0139350798 0.0395906046 0.0 0.0100520272 0.0317044854 0.0 0.010392216 0.0325013697 0.0 0.0107216369 0.0332574546 0.0 0.01103618 0.0339790136 0.0 0.0113357538 0.0346737355 0.0 0.0116223767 0.0353484601 0.0 0.011898635 0.0360082686 0.0 0.0121667851 0.0366562307 0.0 0.0124283545 0.03
[...]
<PointData>
<DataArray Name="displ" NumberOfComponents="3" type="Float32" format="ascii">-3.0024647565818465e-05 0.0004915757446745317 0.0 -5.890285510166119e-05 0.0005025799808202328 0.0 2.6008272619019843e-05 0.0006188414421317933 0.0 7.81512273055914e-06 0.0006255364628767646 0.0 -1.65433654264082e-05 0.0005243453322997999 0.0 -4.893696472172387e-05 0.0007625057082760052 0.0 -5.376188374160963e-05 0.0007710484141875748 0.0 -4.228570036754681e-05 0.0007210524825826374 0.0 -4.62194724903763e-05 0.0005448913834882871 0.0 -9.128404241655153e-05 0.0006437932691427731 0.0 -0.00011471121691989994 0.0006172886793256214 0.0 -6.74044654892397e-05 0.0007331010990962441 0.0 4.367320440501225e-06 0.00035077386702637374 0.0 -2.4912263189492208e-05 0.0003691666498027441 0.0 -8.303021701697196e-05 0.0009141232879347906 0.0 -5.027984958871709e-05 0.000895676984240294 0.0 -1.8589487082443848e-05 0.0005241504226853611 0.0 -2.184423295316853e-05 0.0005226600061599815 0.0 -2.4889682300432358e-05 0.0005193809657755105 0.0 -2.7821081235526684e-05 0.0005116392019591624 0.0 -2.985029449027778e-05 0.0005052406835400504 0.0 -2.9708645205443493e-05 0.0004960807316216501 0.0 -3.2736822287985796e-05 0.0004909612062857149 0.0 -3.286812497105e-05 0.0004964176767566432 0.0 -3.304776965245569e-05 0.0004936195310955492 0.0 -3.4001371898312325e-05 0.0004997947228025466 0.0 -3.459326515173328e-05 0.0004985087453775647 0.0 -3.5925871725252386e-05 0.0005047448460554116 0.0 -3.52026890927558e-05 0.0005046781169374855 0.0 -3.7689186206893984e-05 0.0005065620422469732 0.0 -3.579686751078609e-05 0.0005044933184356484 0.0 -3.6663087448444026e-05 0.0005073583428891414 0.0 -3.9829786682734676e-05 0.0005062009823729986 0.0 -3.856920451225642e-05 0.000503925740042744 0.0 -4.2633004201596255e-05 0.0005095297042281074 0.0 -3.170522340283678e-05 0.0005017201788920893 0.0 -4.1619149357818555e-05 0.0004998312908923437 0.0 -2.1022695936718548e-05 0.0005003032990143159 0.0 -4.630664770549245e-05 0.0005140959856945964 0.0 -2.637523441990209e-05 0.0005067405930973687 0.0 -2.2826612650688917e-05 0.0005055803552237485 0.0 -1.5568970697573632e-05 0.0005075908030685251 0.0 -4.412684120740711e-06 0.0005156125139126552 0.0 -1.0148950488523515e-05 0.000508731710930839 0.0 -9.184639717745579e-06 0.0005148741626559035 0.0 -6.289958735918341e-06 0.0005349103855613613 0.0 3.4666303279556717e-06 0.0005306382353647177 0.0 -4.036627770636248e-06 0.0005411882104579304 0.0 1.6448765274186513e-06 0.0005438157295145398 0.0 -1.4364129180362484e-05 0.000565108278309927 0.0 -1.6685449228609295e-07 0.0005460114509554309 0.0 1.1753100337308148e-05 0.0005405231971534938 0.0 -8.819425268877006e-06 0.0005955276862935794 0.0 -2.972720679974892e-06 0.0006170137994124565 0.0 -1.3579694603321216e-05 0.0006231159038932432 0.0 -8.655054262562012e-07 0.0006267151477746503 0.0 -1.0380412033299477e-05 0.0006251354004666967 0.0 2.5297310751851625e-06 0.0006220874142161535 0.0 3.61587416785016e-07 0.0006277576826427074 0.0 -1.3409156385069405e-06 0.0006215016443152878 0.0 -2.8396533537613625e-06 0.0006234180837944492 0.0 1.8922243731078056e-06 0.0006232123960658729 0.0 1.747050343466054e-06 0.0006212463429285745 0.0 2.44673015646893e-06 0.0006211520422249735 0.0 2.9206337168517064e-06 0.0006221085153864472 0.0 1.966180349640016e-06 0.0006214829918905079 0.0 5.8353681723185185e-06 0.0006238840733127629 0.0 4.11186407833649e-06 0.0006191787603674562 0.0 6.08625963234933e-06 0.0006160785257396655 0.0 3.439718504185165e-06 0.0006168281913257114 0.0 2.822352245470649e-06 0.0006057162546174292 0.0 -5.658461461225893e-07 0.000597677414528469 0.0 -8.393566656181195e-06 0.0005900647103789076 0.0 -1.2839893448555557e-05 0.0005821778676533893 0.0 -1.3313100396995526e-05 0.000571828426427062 0.0 -1.656202065476334e-05 0.0005625254976420853 0.0 -1.4930818704202742e-05 0.0005502210045408955 0.0 -1.618599108813106e-05 0.0005439042921151389 0.0 -1.611133915191925e-05 0.0005313106570225846 0.0 3.208440736944735e-05 0.0007111910934934798 0.0 4.5068522692311735e-06 0.0007073904022699952 0.0 1.689845465434537e-05 0.0006929081973542273 0.0 2.687057951639504e-06 0.0007230244520290284 0.0 2.446673573818105e-07 0.0007127566723512512 0.0 3.233963319395685e-06 0.0007107796198767326 0.0 -1.2150576377538627e-05 0.0007164994716681464 0.0 -1.1762511613865276e-05 0.0007306187941325358 0.0 -1.2995163458312051e-05 0.0007307870557386009 0.0 -2.3381489808091556e-05 0.0007349800700935394 0.0 -2.2697982294802275e-05 0.0007365142747382516 0.0 -2.604334359411429e-05 0.0007457512130594299 0.0 -3.0462739255164785e-05 0.0007450385750485311 0.0 -4.4603657210136166e-05 0.0007519328036095662 0.0 -4.233202375932016e-05 0.0007532239742465524 0.0 -4.654038717073513e-05 0.0007580922512171092 0.0 -4.626615792600212e-05 0.0007533170621859138 0.0 -5.402967154904448e-05 0.0007534782498493332 0.0 -4.8742863767654673e-05 0.0007569934514324798 0.0 -4.6059939613602996e-05 0.0007571289670018522 0.0 -4.8271462239607714e-05 0.0007573689151900288 0.0 -5.515643425624718e-05 0.0007595193385754776 0.0 -4.97142625475097e-05 0.0007541798601591101 0.0 -5.116961580574205e-05 0.0007611820322113856 0.0 -5.044742861663321e-05 0.0007590969716709993 0.0 -5.135396054607522e-05 0.0007584245065593129 0.0 -4.9458228611490266e-05 0.000763135852422989 0.0 -5.4151606254258116e-05 0.000762839917042381 0.0 -5.373047925865451e-05 0.0007626034881914604 0.0 -5.131182803316543e-05 0.0007655442829780188 0.0 -5.454049547301657e-05 0.000766334986430099 0.0 -5.366962606816642e-05 0.0007680570575472895 0.0 -5.2300495526069204e-05 0.0007622295976735002 0.0 -5.3856863824197666e-05 0.0007519693142875851 0.0 -5.039587995471318e-05 0.0007425531697016407 0.0 -4.812192504951502e-05 0.0007351430451477491 0.0 -4.654069874725953e-05 0.0007293903754146818 0.0 -4.4019006501633114e-05 0.000724167451853066 0.0 -4.102524701350721e-05 0.0007130291511092996 0.0 -3.7625835893735705e-05 0.0007055419594368596 0.0 -3.7996732072759475e-05 0.0006930499314571954 0.0 -3.663064517146086e-05 0.0006861574167653585 0.0 -3.118816802588087e-05 0.0006749220285035361 0.0 -2.4545087392069594e-05 0.0006685157449300079 0.0 -2.4133429039521027e-05 0.0006534867197463385 0.0 -1.2733335885971797e-05 0.0006465359626223317 0.0 -5.044617213840455e-06 0.0006434155661126864 0.0 7.959240304700595e-07 0.0006342860025941938 0.0 -5.474937604341121e-07 0.0006295513520338113 0.0 -0.00010395857878417363 0.0006296227348806709 0.0 -6.308615371132317e-05 0.0006087763706347176 0.0 -0.00011077848434052009 0.0005721364537490987 0.0 -7.730111968971406e-05 0.0005891371454591575 0.0 -8.135489335938116e-05 0.0005574927168204058 0.0 -8.74118239948198e-05 0.0005583309215954323 0.0 -9.030185210271032e-05 0.0005328515532269203 0.0 -7.234036482468324e-05 0.0005564096155780999 0.0 -8.455942496762054e-05 0.0005170341155504292 0.0 -6.848070474485504e-05 0.0005309756635391845 0.0 -6.433297826753877e-05 0.0005298832956567913 0.0 -6.461110614759341e-05 0.0005206967800282563 0.0 -7.098497384848496e-05 0.0005030935818031528 0.0 -5.712500114954517e-05 0.0005129836981988737 0.0 -4.319579451981171e-05 0.0005111729819368618 0.0 -5.0919056942677005e-05 0.0005084599766446472 0.0 -3.768570582650803e-05 0.0005033069062350487 0.0 -3.339217033211834e-05 0.0004943411948874636 0.0 -3.397772686301064e-05 0.0005035310095387174 0.0 -3.63981462554606e-05 0.0005157034492355566 0.0 -3.815132983593437e-05 0.0005265651661455511 0.0 -4.185361140161881e-05 0.0005341330664398499 0.0 -4.2062283154242584e-05 0.0005382438525888664 0.0 -4.6753020350787344e-05 0.0005435340413096899 0.0 -5.150602722386677e-05 0.0005573998813084149 0.0 -5.498099215677924e-05 0.0005676741831338146 0.0 -5.0195755425680977e-05 0.0005668518088295314 0.0 -5.902515156289965e-05 0.000588616166097671 0.0 -6.204037250883089e-05 0.0005907219164528865 0.0 -6.56184219893123e-05 0.0006050957506399837 0.0 -6.802240688149462e-05 0.0006160060325415125 0.0 -7.666692857942619e-05 0.0006250888815600828 0.0 -8.111293271319226e-05 0.0006180830681485768 0.0 -8.233737753689333e-05 0.0006216429822200212 0.0 -9.009663891290962e-05 0.0006241137348922929 0.0 -8.871349752710346e-05 0.0006390247161875474 0.0 -8.763681450887957e-05 0.0006376678287311944 0.0 -8.83122362607467e-05 0.0006348449100825405 0.0 -8.85171044373164e-05 0.0006357866590685144 0.0 -9.047541236546418e-05 0.0006388942016106744 0.0 -8.522038038513738e-05 0.0006329429263342592 0.0 -8.588239246996502e-05 0.0006349636466693974 0.0 -8.275599970581438e-05 0.0006310779774995108 0.0 -8.599124334621057e-05 0.0006298579815481184 0.0 -8.275988761617431e-05 0.00063799081388658 0.0 -8.83781955619671e-05 0.0006290645436723023 0.0 -8.564222632758916e-05 0.0006376212468394013 0.0 -8.730470754964446e-05 0.000633339725881605 0.0 -8.448197622872563e-05 0.0006414797303905888 0.0 -6.625937463915473e-05 0.0007356863208126754 0.0 -6.198213642311283e-05 0.0007347811047598686 0.0 -6.0415450113965106e-05 0.0007387116240581995 0.0 -5.8129975005468105e-05 0.0007427337010937866 0.0 -5.454387829879116e-05 0.0007508262288766091 0.0 -5.5299463344080755e-05 0.0007594261363427206 0.0 -5.4536332628500143e-05 0.0007671207205959409 0.0 -4.110709779492398e-05 0.0007571103671676796 0.0 -6.35946932956331e-05 0.0007549556911646234 0.0 -6.753698246713956e-05 0.0007500477121895967 0.0 -5.996956782648321e-05 0.0007518002245207588 0.0 -7.27184166269057e-05 0.0007459044905318712 0.0 -7.164944905422728e-05 0.0007396379325162019 0.0 -6.659459873735343e-05 0.000741326143475093 0.0 -7.506409811996404e-05 0.0007273101472142366 0.0 -7.501597571137302e-05 0.0007133950779260541 0.0 -7.814456223339464e-05 0.0007292920929979647 0.0 -8.423804668426957e-05 0.0007105151937234907 0.0 -8.555527011430495e-05 0.0007094895889797387 0.0 -8.737774016279838e-05 0.0006916811590007165 0.0 -8.917862271714152e-05 0.0006939897151758514 0.0 -9.201575995503421e-05 0.0006465456687853717 0.0 -7.498638255813056e-05 0.0006618505236537167 0.0 -8.342959123135545e-05 0.0006417555395486546 0.0 -9.116711716379034e-05 0.000642565798678936 0.0 -8.775515517941194e-05 0.0006521193490322901 0.0 -8.744572364294334e-05 0.0006555582350187367 0.0 -7.981055335407207e-05 0.0006715885408007025 0.0 -7.739192238632088e-05 0.0006676413490507726 0.0 -7.234464694492821e-05 0.0006849048803160446 0.0 -7.027096396248914e-05 0.0006857480529136299 0.0 -7.005010334106159e-05 0.0007109300880571303 0.0 -7.128849003290608e-05 0.0007077702826874408 0.0 -6.642865532046664e-05 0.0007139866182434915 0.0 -6.962407723407495e-05 0.0007256897948807988 0.0 -1.3831952929993322e-05 0.000500387184567735 0.0 -1.5006350143433423e-05 0.0004838130374551237 0.0 -1.1532502291490369e-05 0.00046406326247700207 0.0 -9.395525609741079e-06 0.00044525972313299385 0.0 -5.057687802703733e-06 0.0004296443128791249 0.0 -3.401038837007676e-06 0.0004108173570294645 0.0 -2.226606243622121e-06 0.00039648904114023584 0.0 1.086094689293778e-06 0.0003798536167600375 0.0 3.2413667765611277e-06 0.0003652578831270465 0.0 1.5655711218581941e-06 0.0003544419835155239 0.0 -1.6228613339286242e-06 0.0003534583059690646 0.0 -3.579751113124626e-06 0.0003568862617993364 0.0 -7.576462523982507e-06 0.0003568683379064649 0.0 -9.304465899293365e-06 0.0003562067775211111 0.0 -1.158452822670251e-05 0.0003569702282359059 0.0 -1.4458330149831023e-05 0.0003581568064453792 0.0 -1.7849103512176012e-05 0.00035920497717517873 0.0 -1.6520252424951666e-05 0.00036005306461169787 0.0 -2.0313410230730747e-05 0.00036323550201169946 0.0 -2.1481259197375453e-05 0.00036450199702878466 0.0 -2.185672039661942e-05 0.0003663345610351847 0.0 -2.2080042837871805e-05 0.00036944022038994144 0.0 -2.042711374114533e-05 0.0003696438698151762 0.0 -2.185841227931386e-05 0.0003701974746057776 0.0 -2.3096748486605493e-05 0.0003880661646147278 0.0 -2.6904089170568602e-05 0.00040336733001438107 0.0 -2.8372442046916563e-05 0.0004200674215760102 0.0 -3.3600792796155666e-05 0.00043717298981659327 0.0 -3.789678318745325e-05 0.0004534281766015496 0.0 -4.083470944650068e-05 0.00047028582004859275 0.0 -3.9827535235990115e-05 0.0004840450161983722 0.0 -4.033915950863028e-05 0.0005043516248481563 0.0 -4.207250104237985e-05 0.000522485138242048 0.0 -6.723352850119251e-05 0.0007510300221299179 0.0 -6.964807029068824e-05 0.0007721163453759142 0.0 -6.865883713944803e-05 0.0007854826584839343 0.0 -7.302467083782202e-05 0.0008124536641061563 0.0 -7.222865405843767e-05 0.0008265209415298422 0.0 -7.76362756143677e-05 0.0008431748146015665 0.0 -7.905074052285489e-05 0.0008582434372360247 0.0 -7.915057439895058e-05 0.0008803568952812116 0.0 -8.201380995987905e-05 0.0008930680928352597 0.0 -8.26901571661154e-05 0.0009123655805323021 0.0 -8.046462909286594e-05 0.0009123297887203429 0.0 -8.054979374521774e-05 0.0009085095949235523 0.0 -7.53631847115968e-05 0.0009081901712284896 0.0 -7.548304959589355e-05 0.0009089136231200023 0.0 -7.044374368397725e-05 0.0009068838982625007 0.0 -6.906474350309451e-05 0.0009072644210131891 0.0 -6.398791013814547e-05 0.0009095809713321771 0.0 -6.014111137300226e-05 0.0009099012171566872 0.0 -5.78604905199557e-05 0.0009100413714920115 0.0 -5.5146541178511445e-05 0.0009082616351560012 0.0 -5.200419933170633e-05 0.0009091195515790608 0.0 -5.350088232122632e-05 0.0009032841384865618 0.0 -5.226613901748618e-05 0.0009015776048662742 0.0 -5.099918534758488e-05 0.0008984627342948593 0.0 -4.984429873573201e-05 0.0008847248188840388 0.0 -5.188697994849628e-05 0.0008646457476889487 0.0 -5.176458052303389e-05 0.000849528209982724 0.0 -5.0767931130526554e-05 0.0008354975665033881 0.0 -4.9291451634102424e-05 0.0008166378380055153 0.0 -4.619330564005378e-05 0.0007978859383280915 0.0 -4.9493281055606335e-05 0.0007787229560476625 0.0 -4.5532480861627024e-05 0.0007594663516017322 0.0 -4.6631432422929374e-05 0.000741615163504988 0.0 -2.1043974596738068e-05 0.0005350431847345556 0.0 -2.9966707336734748e-05 0.0004915755648157485 0.0 -3.1899297850670533e-05 0.0005004447778275024 0.0 -2.9632032427194183e-05 0.0005060083876330681 0.0 -2.8926438070340484e-05 0.000518505135010961 0.0 -2.5236655523082027e-05 0.0005234010552388067 0.0 -2.4074745383598665e-05 0.0005293126680962768 0.0 -2.0638388501198806e-05 0.0005205542422177593 0.0 -1.845328549398878e-05 0.0005288837151126001 0.0 -2.849814223160992e-05 0.0005352649066291042 0.0 -2.9759188891145683e-05 0.0005414960878938399 0.0 -2.5591959502553273e-05 0.0005494955355211223 0.0 -2.7038771342066602e-05 0.0005537827094896295 0.0 -2.5552378331191657e-05 0.0005526250948830648 0.0 -2.802017907722203e-05 0.0005539280786166833 0.0 -2.7045902983698756e-05 0.0005518354379469532 0.0 -2.6406001639399124e-05 0.0005517111922733446 0.0 -2.4239568972603705e-05 0.0005510486786659172 0.0 -2.380430657828583e-05 0.0005453760693273471 0.0 -2.351960965813295e-05 0.0005421679229335948 0.0 7.450671428673072e-06 0.0006177715678760653 0.0 3.4694781032167658e-06 0.0006082944238660739 0.0 1.8552273302203375e-06 0.0006037353093122364 0.0 -2.42681692609602e-06 0.0005967032994412408 0.0 -6.406858479650819e-06 0.0005876167677324598 0.0 -8.600374199353745e-06 0.000582581331032029 0.0 -1.4208024774125195e-05 0.0005711561297234671 0.0 -1.4322982180389982e-05 0.0005639954066716203 0.0 -1.6610783500392314e-05 0.0005550547400375295 0.0 -1.883157967666338e-05 0.0005468102373884624 0.0 -3.2317189498471645e-05 0.0004982011721664065 0.0 -3.4295751670985434e-05 0.000498250266861269 0.0 -3.434890913693379e-05 0.0004996164714187101 0.0 -3.4657950698187075e-05 0.000501968600965979 0.0 -3.4728177567407816e-05 0.0005027691749350828 0.0 -3.388914932933366e-05 0.0005066632494184212 0.0 -3.789549028948842e-05 0.0005051110831848351 0.0 -2.9966624402855593e-05 0.0005075203514974643 0.0 -3.5539409347936325e-05 0.0005107364779428825 0.0 -3.348693516971623e-05 0.000508008286946651 0.0 -3.897912609073385e-05 0.0005104256586554462 0.0 -4.13139664672663e-05 0.0005048052180450226 0.0 -3.673051003073377e-05 0.0005069352247242547 0.0 -3.1708949508921936e-05 0.0005023414024961258 0.0 -3.260518803358946e-05 0.0005017692371432849 0.0 -3.327903037605136e-05 0.0005052930602372793 0.0 -3.4666297427177285e-05 0.000508621883947166 0.0 -3.0827321830620206e-05 0.0005076715228325274 0.0 -3.286954972526664e-05 0.000507516875239192 0.0 -3.7187745794135285e-05 0.0005102964873079891 0.0 -3.5504774298427686e-05 0.0005115875717921033 0.0 -3.864454837782748e-05 0.0005058080766620134 0.0 -3.433116227825513e-05 0.0005074125466893255 0.0 -3.3631934859061397e-05 0.00050676791906224 0.0 -3.734458283819477e-05 0.0005111499640543933 0.0 -3.7015904297964415e-05 0.0005060518507120437 0.0 -3.0730926602409316e-05 0.0005105471130633974 0.0 -3.1634420656448973e-05 0.0005092314184010976 0.0 -3.2149723710910305e-05 0.0005119570659387264 0.0 -3.331977874187293e-05 0.0005121710507129754 0.0 -3.560094968652627e-05 0.0005149210170465465 0.0 -3.17762773163836e-05 0.0005135250646529068 0.0 -3.610723965145251e-05 0.0005132720338007074 0.0 -3.4968765756269546e-05 0.0005147381988091951 0.0 -3.597302305592248e-05 0.0005161262418237479 0.0 -3.612518439359355e-05 0.0005130890112794884 0.0 -3.623878272822128e-05 0.0005100622746884716 0.0 -3.0330846579533688e-05 0.0005084059047453457 0.0 -3.295847739511063e-05 0.0005072338829690993 0.0 -2.820036792050921e-05 0.0005208341495396107 0.0 -3.198014577783593e-05 0.000521753893756826 0.0 -3.101877103976481e-05 0.000523471432770665 0.0 -3.0363273470656877e-05 0.0005264816716556416 0.0 -3.115245212513223e-05 0.0005223834068942377 0.0 -3.536462214788564e-05 0.0005247725280096711 0.0 -3.447854343276092e-05 0.0005261556061019462 0.0 -3.0871990630003826e-05 0.0005186238894195637 0.0 -3.35508112274454e-05 0.0005203018748130548 0.0 -2.95880785938065e-05 0.0005182993633760983 0.0 -3.349855561122527e-05 0.0005137336180870912 0.0 -2.7276413858650445e-05 0.0005094950630587284 0.0 -2.898029631236351e-05 0.0005061033903984993 0.0 -2.965289697283021e-05 0.0005287786703141228 0.0 -2.7534975123810645e-05 0.000531245701682703 0.0 -2.9846638436479714e-05 0.0005348546396525248 0.0 -3.070163536364851e-05 0.0005343702867605832 0.0 -3.2337532865374085e-05 0.0005353999811682084 0.0 -3.339946129229931e-05 0.0005345118020699596 0.0 -3.146416660411784e-05 0.0005331536496348843 0.0 -3.0422922259482946e-05 0.0005307639196137859 0.0 -3.177065108583907e-05 0.0005305208090613914 0.0 -3.2120179103685364e-05 0.0005214072143347573 0.0 -3.313430406380519e-05 0.0005212942692433948 0.0 -2.2949528474009057e-05 0.0005161969276575178 0.0 -3.4569956489513245e-05 0.000512641652330022 0.0 -2.5229908400713604e-05 0.0005354813420049314 0.0 -2.5574400081391467e-05 0.0005405397059294175 0.0 -2.6257872604569514e-05 0.0005445722787635796 0.0 -2.8508671695340095e-05 0.0005459542331920616 0.0 -2.8539862157655356e-05 0.0005467067950232845 0.0 -2.965187962920647e-05 0.0005457547546114385 0.0 -2.8055946483747173e-05 0.0005471569008464636 0.0 -3.184520808405756e-05 0.0005413915969809499 0.0 -3.1519678397684106e-05 0.0005388717682379893 0.0 -2.697592332795269e-05 0.0005362807860311851 0.0 -2.7976202877146223e-05 0.0005275219487478715 0.0 -2.8992825903003515e-05 0.0005235283340364404 0.0 -2.5212239009419026e-05 0.000510574742487911 0.0 -1.8956330989622974e-05 0.0005265931185038282 0.0 -1.5083430591405428e-05 0.0005253063588321306 0.0 -9.11392775930049e-06 0.0005432174698596643 0.0 -5.86408554014263e-06 0.000545350516863055 0.0 6.183278093432639e-07 0.0005548055517840554 0.0 -3.5226862454998993e-07 0.0005628911841071957 0.0 -6.396386466812523e-06 0.0005931911592700714 0.0 -4.271679231855737e-06 0.0006033331919024918 0.0 -8.532619394138774e-07 0.0006117628894924034 0.0 -4.135088142241833e-06 0.0006222100509433845 0.0 -1.9788590442495316e-05 0.0005383037442088644 0.0 -1.839501309980124e-05 0.0005526427858738653 0.0 -1.2762353604312698e-05 0.0005513832141702488 0.0 -1.4101986055914545e-05 0.0005705849239026652 0.0 -3.857471002490169e-06 0.0005772932245226784 0.0 -1.1476318009254689e-05 0.0005922500646044786 0.0 1.4373012291425183e-06 0.0005904535671269347 0.0 -2.2428310169432866e-06 0.0006018894322796441 0.0 -4.626659127150639e-06 0.000613981036064649 0.