<?xml version="1.0" ?>
<VTKFile type="UnstructuredGrid" version="0.1" byte_order="LittleEndian">
<UnstructuredGrid>
<Piece NumberOfPoints="1500" NumberOfCells="1404">
<Points>
<DataArray type="Float32" format="ascii" NumberOfComponents="3">0.0149999997 0.0299999993 0.0 0.0149999997 0.0401869528 0.0 0.00973947905 0.0450999998 0.0 0.0 0.0450999998 0.0 0.0 0.0299999993 0.0 0.0149999997 0.0500130467 0.0 0.0149999997 0.0599999987 0.0 0.0 0.0599999987 0.0 0.0299999993 0.0299999993 0.0 0.0299999993 0.0450999998 0.0 0.0195885208 0.0450999998 0.0 0.0299999993 0.0599999987 0.0 0.0 0.0 0.0 0.0299999993 0.0 0.0 0.0299999993 0.0900000036 0.0 0.0 0.0900000036 0.0 0.00187499996 0.0299999993 0.0 0.00374999992 0.0299999993 0.0 0.00562500022 0.0299999993 0.0 0.00749999983 0.0299999993 0.0 0.00937500037 0.0299999993 0.0 0.0112500004 0.0299999993 0.0 0.0131249996 0.0299999993 0.0 0.0149999997 0.0309388097 0.0 0.0149999997 0.0315993913 0.0 0.0149999997 0.0322599746 0.0 0.0149999997 0.0329205543 0.0 0.0149999997 0.0335811377 0.0 0.0149999997 0.0342417173 0.0 0.0149999997 0.0349023007 0.0 0.0149999997 0.0355628803 0.0 0.0149999997 0.0362234637 0.0 0.0149999997 0.0368840471 0.0 0.0149999997 0.0375446267 0.0 0.0149999997 0.0382052101 0.0 0.0149999997 0.0388657898 0.0 0.0149999997 0.0395263731 0.0 0.0145518444 0.0401767567 0.0 0.0141046178 0.0402073525 0.0 0.0136620263 0.0402784906 0.0 0.0132277375 0.0403895788 0.0 0.0128053501 0.0405397005 0.0 0.012398364 0.0407276079 0.0 0.0120101506 0.0409517474 0.0 0.0116439275 0.0412102602 0.0 0.0113027301 0.0415010042 0.0 0.0109893847 0.0418215692 0.0 0.0107064871 0.042169299 0.0 0.0104563832 0.0425413139 0.0 0.0102411434 0.0429345332 0.0 0.010062553 0.0433456935 0.0 0.00992209092 0.0437713899 0.0 0.00982092042 0.0442080945 0.0 0.00975988153 0.0446521938 0.0 0.00910791382 0.0450999998 0.0 0.00847634859 0.0450999998 0.0 0.0078447843 0.0450999998 0.0 0.00721321953 0.0450999998 0.0 0.00658165431 0.0450999998 0.0 0.00595008954 0.0450999998 0.0 0.00531852478 0.0450999998 0.0 0.00468696002 0.0450999998 0.0 0.00405539526 0.0450999998 0.0 0.00342383026 0.0450999998 0.0 0.0027922655 0.0450999998 0.0 0.00216070074 0.0450999998 0.0 0.00152913586 0.0450999998 0.0 0.000897571037 0.0450999998 0.0 0.0 0.0438416675 0.0 0.0 0.0425833352 0.0 0.0 0.0413249992 0.0 0.0 0.0400666669 0.0 0.0 0.0388083346 0.0 0.0 0.0375499986 0.0 0.0 0.0362916663 0.0 0.0 0.035033334 0.0 0.0 0.0337750018 0.0 0.0 0.0325166658 0.0 0.0 0.0312583335 0.0 0.00975988153 0.0455478057 0.0 0.00982092042 0.045991905 0.0 0.00992209092 0.0464286096 0.0 0.010062553 0.046854306 0.0 0.0102411434 0.0472654663 0.0 0.0104563832 0.0476586856 0.0 0.0107064871 0.0480307005 0.0 0.0109893847 0.0483784303 0.0 0.0113027301 0.0486989953 0.0 0.0116439275 0.0489897393 0.0 0.0120101506 0.0492482521 0.0 0.012398364 0.0494723916 0.0 0.0128053501 0.049660299 0.0 0.0132277375 0.0498104207 0.0 0.0136620263 0.0499215089 0.0 0.0141046178 0.049992647 0.0 0.0145518444 0.0500232428 0.0 0.0149999997 0.0506606586 0.0 0.0149999997 0.0513082705 0.0 0.0149999997 0.0519558825 0.0 0.0149999997 0.0526034944 0.0 0.0149999997 0.05325111 0.0 0.0149999997 0.0538987219 0.0 0.0149999997 0.0545463338 0.0 0.0149999997 0.0551939458 0.0 0.0149999997 0.0558415577 0.0 0.0149999997 0.0564891733 0.0 0.0149999997 0.0571367852 0.0 0.0149999997 0.0577843972 0.0 0.0149999997 0.0584320091 0.0 0.0149999997 0.059079621 0.0 0.0131249996 0.0599999987 0.0 0.0112500004 0.0599999987 0.0 0.00937500037 0.0599999987 0.0 0.00749999983 0.0599999987 0.0 0.00562500022 0.0599999987 0.0 0.00374999992 0.0599999987 0.0 0.00187499996 0.0599999987 0.0 0.0 0.0587583333 0.0 0.0 0.057516668 0.0 0.0 0.0562749989 0.0 0.0 0.0550333336 0.0 0.0 0.0537916683 0.0 0.0 0.0525499992 0.0 0.0 0.0513083339 0.0 0.0 0.0500666648 0.0 0.0 0.0488249995 0.0 0.0 0.0475833341 0.0 0.0 0.0463416651 0.0 0.0195713751 0.0446894132 0.0 0.0195200555 0.0442816839 0.0 0.0194349196 0.0438796543 0.0 0.0193165597 0.0434861258 0.0 0.0191658027 0.0431038328 0.0 0.0189836938 0.0427354388 0.0 0.0187715068 0.0423835143 0.0 0.0185307153 0.0420505032 0.0 0.0182629973 0.0417387299 0.0 0.0179702155 0.0414503627 0.0 0.0176544115 0.041187413 0.0 0.0173177831 0.0409517065 0.0 0.0169626754 0.0407448858 0.0 0.0165915582 0.0405683964 0.0 0.0162070207 0.040423464 0.0 0.0158117376 0.0403110944 0.0 0.0154084601 0.0402320772 0.0 0.0168750007 0.0299999993 0.0 0.0187500007 0.0299999993 0.0 0.0206250008 0.0299999993 0.0 0.0225000009 0.0299999993 0.0 0.0243749991 0.0299999993 0.0 0.0262499992 0.0299999993 0.0 0.0281249993 0.0299999993 0.0 0.0299999993 0.0312583335 0.0 0.0299999993 0.0325166658 0.0 0.0299999993 0.0337750018 0.0 0.0299999993 0.035033334 0.0 0.0299999993 0.0362916663 0.0 0.0299999993 0.0375499986 0.0 0.0299999993 0.0388083346 0.0 0.0299999993 0.0400666669 0.0 0.0299999993 0.0413249992 0.0 0.0299999993 0.0425833352 0.0 0.0299999993 0.0438416675 0.0 0.0290404987 0.0450999998 0.0 0.0283653568 0.0450999998 0.0 0.0276902169 0.0450999998 0.0 0.0270150751 0.0450999998 0.0 0.0263399333 0.0450999998 0.0 0.0256647933 0.0450999998 0.0 0.0249896515 0.0450999998 0.0 0.0243145097 0.0450999998 0.0 0.0236393698 0.0450999998 0.0 0.0229642279 0.0450999998 0.0 0.0222890861 0.0450999998 0.0 0.0216139443 0.0450999998 0.0 0.0209388044 0.0450999998 0.0 0.0202636626 0.0450999998 0.0 0.0281249993 0.0599999987 0.0 0.0262499992 0.0599999987 0.0 0.0243749991 0.0599999987 0.0 0.0225000009 0.0599999987 0.0 0.0206250008 0.0599999987 0.0 0.0187500007 0.0599999987 0.0 0.0168750007 0.0599999987 0.0 0.0154084601 0.049967926 0.0 0.0158117376 0.0498889051 0.0 0.0162070207 0.0497765355 0.0 0.0165915582 0.0496316031 0.0 0.0169626754 0.0494551137 0.0 0.0173177831 0.049248293 0.0 0.0176544115 0.0490125902 0.0 0.0179702155 0.0487496369 0.0 0.0182629973 0.0484612696 0.0 0.0185307153 0.0481494963 0.0 0.0187715068 0.0478164889 0.0 0.0189836938 0.0474645607 0.0 0.0191658027 0.0470961705 0.0 0.0193165597 0.0467138775 0.0 0.0194349196 0.0463203453 0.0 0.0195200555 0.0459183156 0.0 0.0195713751 0.0455105864 0.0 0.0299999993 0.0463416651 0.0 0.0299999993 0.0475833341 0.0 0.0299999993 0.0488249995 0.0 0.0299999993 0.0500666648 0.0 0.0299999993 0.0513083339 0.0 0.0299999993 0.0525499992 0.0 0.0299999993 0.0537916683 0.0 0.0299999993 0.0550333336 0.0 0.0299999993 0.0562749989 0.0 0.0299999993 0.057516668 0.0 0.0299999993 0.0587583333 0.0 0.0 0.0270000007 0.0 0.0 0.0240000002 0.0 0.0 0.0209999997 0.0 0.0 0.0179999992 0.0 0.0 0.0149999997 0.0 0.0 0.0120000001 0.0 0.0 0.00899999961 0.0 0.0 0.00600000005 0.0 0.0 0.00300000003 0.0 0.00187499996 0.0 0.0 0.00374999992 0.0 0.0 0.00562500022 0.0 0.0 0.00749999983 0.0 0.0 0.00937500037 0.0 0.0 0.0112500004 0.0 0.0 0.0131249996 0.0 0.0 0.0149999997 0.0 0.0 0.0168750007 0.0 0.0 0.0187500007 0.0 0.0 0.0206250008 0.0 0.0 0.0225000009 0.0 0.0 0.0243749991 0.0 0.0 0.0262499992 0.0 0.0 0.0281249993 0.0 0.0 0.0299999993 0.00300000003 0.0 0.0299999993 0.00600000005 0.0 0.0299999993 0.00899999961 0.0 0.0299999993 0.0120000001 0.0 0.0299999993 0.0149999997 0.0 0.0299999993 0.0179999992 0.0 0.0299999993 0.0209999997 0.0 0.0299999993 0.0240000002 0.0 0.0299999993 0.0270000007 0.0 0.0299999993 0.063000001 0.0 0.0299999993 0.0659999996 0.0 0.0299999993 0.0689999983 0.0 0.0299999993 0.0719999969 0.0 0.0299999993 0.075000003 0.0 0.0299999993 0.0780000016 0.0 0.0299999993 0.0810000002 0.0 0.0299999993 0.0839999989 0.0 0.0299999993 0.0869999975 0.0 0.0281249993 0.0900000036 0.0 0.0262499992 0.0900000036 0.0 0.0243749991 0.0900000036 0.0 0.0225000009 0.0900000036 0.0 0.0206250008 0.0900000036 0.0 0.0187500007 0.0900000036 0.0 0.0168750007 0.0900000036 0.0 0.0149999997 0.0900000036 0.0 0.0131249996 0.0900000036 0.0 0.0112500004 0.0900000036 0.0 0.00937500037 0.0900000036 0.0 0.00749999983 0.0900000036 0.0 0.00562500022 0.0900000036 0.0 0.00374999992 0.0900000036 0.0 0.00187499996 0.0900000036 0.0 0.0 0.0869999975 0.0 0.0 0.0839999989 0.0 0.0 0.0810000002 0.0 0.0 0.0780000016 0.0 0.0 0.075000003 0.0 0.0 0.0719999969 0.0 0.0 0.0689999983 0.0 0.0 0.0659999996 0.0 0.0 0.063000001 0.0 0.00240605418 0.0317476094 0.0 0.0132285897 0.0308372527 0.0 0.0114639541 0.0308285281 0.0 0.00970989279 0.0308664478 0.0 0.00796741433 0.030946292 0.0 0.00622726884 0.0310834199 0.0 0.00444168784 0.0313186944 0.0 0.0115238708 0.0404538177 0.0 0.0110589247 0.0399643853 0.0 0.0105802957 0.0394543298 0.0 0.0100896806 0.0389274582 0.0 0.00958756451 0.0383866653 0.0 0.00907252356 0.0378334895 0.0 0.00854044221 0.0372676216 0.0 0.00798357651 0.0366861634 0.0 0.00738931261 0.0360825956 0.0 0.00673822826 0.0354451761 0.0 0.00600026548 0.0347540006 0.0 0.00512524834 0.0339741185 0.0 0.00401390065 0.0330347866 0.0 0.000793838175 0.0438955426 0.0 0.000772442494 0.0426918976 0.0 0.000783006602 0.0414899141 0.0 0.000811753387 0.0402907245 0.0 0.000856733182 0.0390956625 0.0 0.000921554572 0.037906155 0.0 0.00101479655 0.0367233306 0.0 0.00115271518 0.0355465077 0.0 0.00136729016 0.0343677737 0.0 0.00172855402 0.0331514254 0.0 0.0133339632 0.0315873995 0.0 0.0134397261 0.0323022977 0.0 0.0135442559 0.032998085 0.0 0.0136464294 0.0336812399 0.0 0.013745822 0.0343553573 0.0 0.013842525 0.0350228548 0.0 0.0139368745 0.0356853306 0.0 0.0140292263 0.0363436677 0.0 0.0141198216 0.0369979888 0.0 0.0142087657 0.0376475193 0.0 0.0142960874 0.0382902175 0.0 0.0143820234 0.0389216021 0.0 0.0144678745 0.0395311117 0.0 0.0116815548 0.0316202343 0.0 0.011899055 0.0323765688 0.0 0.0121123437 0.033103589 0.0 0.0123189483 0.0338073969 0.0 0.0125182495 0.0344934613 0.0 0.0127108386 0.0351662561 0.0 0.0128977867 0.0358290039 0.0 0.0130801173 0.0364835784 0.0 0.0132585336 0.0371304527 0.0 0.0134333326 0.0377685912 0.0 0.0136044715 0.0383952036 0.0 0.0137717454 0.0390052013 0.0 0.0139350798 0.0395906046 0.0 0.0100520272 0.0317044854 0.0 0.010392216 0.0325013697 0.0 0.0107216369 0.0332574546 0.0 0.01103618 0.0339790136 0.0 0.0113357538 0.0346737355 0.0 0.0116223767 0.0353484601 0.0 0.011898635 0.0360082686 0.0 0.0121667851 0.0366562307 0.0 0.0124283545 0.03
[...]
<PointData>
<DataArray Name="displ" NumberOfComponents="3" type="Float32" format="ascii">-3.14135702097093e-05 0.00035196580731521303 0.0 -4.988997720895919e-05 0.0003631760396358389 0.0 2.6373774419584388e-05 0.0004342495704967924 0.0 -1.3443176429188493e-06 0.0004406353208513176 0.0 -2.206285999696128e-05 0.0003715662502410211 0.0 -4.530311692195586e-05 0.0005418420830445105 0.0 -4.442609227773868e-05 0.0005497349453425015 0.0 -3.589072366923061e-05 0.0005159876007142384 0.0 -4.112737846135227e-05 0.0003878113769293904 0.0 -7.164316312887786e-05 0.0004588319890944893 0.0 -7.003195122034618e-05 0.000457729722563533 0.0 -5.429072772632732e-05 0.0005277193022046885 0.0 -9.619159003080605e-06 0.0002510056133314773 0.0 -2.931587950251951e-05 0.00025682931017503407 0.0 -6.432058875153835e-05 0.0006609819042555052 0.0 -4.5120552733128854e-05 0.0006484505441696418 0.0 -2.2474228837913325e-05 0.00037079516749593703 0.0 -2.346962452517568e-05 0.0003691284459339155 0.0 -2.5829943656225358e-05 0.0003671305275225761 0.0 -2.7876989299479087e-05 0.0003628827968703768 0.0 -3.0070302527004124e-05 0.0003585719411499433 0.0 -2.9425590047123412e-05 0.0003532681349957707 0.0 -3.238699036512342e-05 0.0003509830118197463 0.0 -3.177102378058731e-05 0.0003545246849845158 0.0 -3.1701131935028115e-05 0.00035221974448025855 0.0 -3.3939528400864033e-05 0.00035683934040269894 0.0 -3.331462057906308e-05 0.0003554967340045576 0.0 -3.472206606999867e-05 0.00035909789169900484 0.0 -3.587673144750924e-05 0.0003564333883005408 0.0 -3.5537288832932197e-05 0.00036037612921180085 0.0 -3.377637009408699e-05 0.00035599327459217753 0.0 -3.582907720390553e-05 0.000357805857066495 0.0 -3.5495555078076925e-05 0.00036116419290346504 0.0 -3.824093960939492e-05 0.0003582544926873937 0.0 -3.917945140188182e-05 0.00035887683921062314 0.0 -3.350432006262968e-05 0.0003621140005887616 0.0 -3.880539524907099e-05 0.00035305843489422524 0.0 -1.7484064317544665e-05 0.0003568600197229661 0.0 -3.980866905600882e-05 0.00036374022899859 0.0 -2.705760163798627e-05 0.0003592312627071756 0.0 -2.6490234561704548e-05 0.0003618181983756168 0.0 -1.5273807550586474e-05 0.00035929278264370466 0.0 -2.162110187243488e-05 0.0003749855059181979 0.0 -1.7109070222724057e-05 0.00036147675836990876 0.0 -9.441072320128777e-06 0.00036862442553132406 0.0 -6.212999203699485e-06 0.0003815288716340158 0.0 -9.419481417729336e-06 0.0003838827452793921 0.0 -9.04784955595183e-06 0.0003829991974449566 0.0 3.948968043550912e-06 0.00038040076118800773 0.0 -1.689713100162407e-05 0.0004094483454770913 0.0 -1.7146241983146132e-06 0.0003929005276552194 0.0 -2.3699788250612027e-06 0.0004008205861467747 0.0 -1.1006821345084863e-05 0.0004204433248867672 0.0 -1.7047863291202757e-05 0.00044215707637099974 0.0 -1.4920864985689482e-05 0.00044646254814530113 0.0 -5.611694783229905e-06 0.0004455427447526067 0.0 -1.2860861583691045e-05 0.0004493467519057023 0.0 -3.955316624747775e-06 0.0004422470192307632 0.0 -8.926383655005662e-06 0.0004474520229747702 0.0 -5.109219187794473e-06 0.00044466191549374267 0.0 -1.291257345535752e-05 0.00044935879151115953 0.0 -5.532727050443643e-06 0.0004425726726116109 0.0 -5.712626519804921e-06 0.000442467881496475 0.0 -5.099145198475909e-06 0.0004419332180934551 0.0 -4.06096181003889e-06 0.0004424148970900919 0.0 -4.686387069657446e-06 0.0004428264893289901 0.0 -2.356406879728577e-06 0.00044249646879399924 0.0 -6.872309851227085e-06 0.00044076650184972767 0.0 -4.955610090851542e-06 0.00043448955922397467 0.0 -5.543606566360669e-06 0.0004367022579856517 0.0 -7.971072441740364e-06 0.00042929043624183853 0.0 -9.778079124132554e-06 0.00042533722839315435 0.0 -1.401111712954101e-05 0.00041754602560426565 0.0 -1.747487298602131e-05 0.0004119864589927845 0.0 -1.7823723979523913e-05 0.0004034294857408842 0.0 -2.1193253418229342e-05 0.00039690447754807607 0.0 -1.8513751114192487e-05 0.0003900443721329699 0.0 -1.936900804137024e-05 0.0003841979963299601 0.0 -2.1142860627261824e-05 0.00037727797795720065 0.0 3.24416051349256e-05 0.0005074482903020326 0.0 -2.558890828635004e-06 0.0004933150026735608 0.0 7.467921043643131e-06 0.0004865897114158977 0.0 -5.513307661429209e-06 0.0005089322138314908 0.0 7.16825187348925e-07 0.0005091763790848458 0.0 -7.367390566718679e-06 0.0005040588380028716 0.0 -1.1058512769416893e-05 0.000515820093615847 0.0 -1.0137065573684633e-05 0.0005213759369631382 0.0 -1.3823049133906628e-05 0.0005234285336880226 0.0 -2.529241588256621e-05 0.0005251949964270171 0.0 -2.5695829099397946e-05 0.0005181906462332704 0.0 -2.5914727190503583e-05 0.0005293467753517204 0.0 -3.207237637434545e-05 0.0005355414336531227 0.0 -3.698554351387951e-05 0.0005283567697047435 0.0 -3.80376047623046e-05 0.0005394985102817158 0.0 -2.842438990955847e-05 0.0005325957544214944 0.0 -4.015509004796296e-05 0.0005431882300578777 0.0 -4.626386791363631e-05 0.0005361532325595993 0.0 -3.896682580781273e-05 0.0005409546707181472 0.0 -3.482188030738986e-05 0.0005399378406371007 0.0 -4.3088914447347175e-05 0.00054294039626328 0.0 -4.5339607259561884e-05 0.0005463051950158784 0.0 -3.9602400211752205e-05 0.0005372958070388382 0.0 -4.038331122374239e-05 0.0005465278680939889 0.0 -4.291580107465063e-05 0.0005413314847730069 0.0 -4.3889309728214436e-05 0.0005405434725016866 0.0 -4.070349677218659e-05 0.0005448781798623209 0.0 -4.617800400225877e-05 0.000545388456432348 0.0 -4.616969716770381e-05 0.0005464291527511952 0.0 -4.296760173838286e-05 0.0005453002762398118 0.0 -4.583762571609672e-05 0.0005500128577379533 0.0 -4.372683362693119e-05 0.0005485668004100221 0.0 -4.337609125454978e-05 0.0005459020754729634 0.0 -4.420966030051746e-05 0.0005384957124514736 0.0 -4.210797173568408e-05 0.0005328810836038715 0.0 -3.866892684633685e-05 0.0005265252603582713 0.0 -3.850404640753596e-05 0.0005208959791914584 0.0 -3.6863898309690024e-05 0.0005176114819081281 0.0 -3.55694069674319e-05 0.0005102620810403033 0.0 -3.3386350478818976e-05 0.0005045013296958144 0.0 -3.171515465894498e-05 0.0004966197803031774 0.0 -3.182694211441653e-05 0.000490282314031883 0.0 -2.869667489123285e-05 0.0004829787062516568 0.0 -2.1089169026512917e-05 0.0004801755440347196 0.0 -2.3301660046053335e-05 0.0004655957353341139 0.0 -1.5122803232354644e-05 0.0004618833416038992 0.0 -9.147885781222106e-06 0.0004588394421506887 0.0 -6.0869979733674925e-06 0.0004520948905327001 0.0 -9.1830806108319e-06 0.0004472151907291767 0.0 -7.138948386168667e-05 0.00043877552689724537 0.0 -5.0934808837983594e-05 0.00045061749891010317 0.0 -7.442196029304208e-05 0.0004140914075466758 0.0 -6.50354020773756e-05 0.00042764749339169156 0.0 -6.33370980016843e-05 0.0004034708357546252 0.0 -6.726232446506404e-05 0.00040809265107202917 0.0 -6.961559711324214e-05 0.00039056323771450685 0.0 -6.543391695407511e-05 0.0003900327688705027 0.0 -6.136717530949676e-05 0.00038239551323852015 0.0 -6.106147659743908e-05 0.0003790376326791414 0.0 -5.082122493159496e-05 0.00038027517660823017 0.0 -5.3758803350853806e-05 0.00037532801666686274 0.0 -5.845165244247321e-05 0.0003569983296095556 0.0 -5.321366718265728e-05 0.00036741563736557124 0.0 -4.039909915036369e-05 0.00036625936273415604 0.0 -3.743735477775117e-05 0.000366466972268859 0.0 -4.2361892805106446e-05 0.00035918272016798215 0.0 -3.3533550545644805e-05 0.0003553338698242738 0.0 -3.37066766584155e-05 0.0003607044150397842 0.0 -3.568894729409412e-05 0.0003695764443801005 0.0 -3.653390870933922e-05 0.0003758373271692601 0.0 -3.826969938207334e-05 0.0003798419463942159 0.0 -3.9182333041330007e-05 0.00038320689588700453 0.0 -4.1343149922576544e-05 0.0003862124875561881 0.0 -4.648996054665349e-05 0.0003939764833133154 0.0 -4.834764579709816e-05 0.0004001045537718668 0.0 -4.389718311300117e-05 0.00039991647001707246 0.0 -5.204718397965715e-05 0.00041568299311850064 0.0 -5.408130825228277e-05 0.00041757150544553166 0.0 -5.48127076987808e-05 0.00042879452200189264 0.0 -5.840169910819866e-05 0.0004375337265015288 0.0 -6.480035293128325e-05 0.00044830545538823317 0.0 -6.54857565561957e-05 0.000442190078741137 0.0 -6.739621216472508e-05 0.00044443671805938516 0.0 -7.19514359579419e-05 0.0004474929239283575 0.0 -7.228062764878067e-05 0.00046044124301068337 0.0 -6.669943503793224e-05 0.000455872031353971 0.0 -7.132466938884097e-05 0.00045568732636991913 0.0 -7.202733424497095e-05 0.00045420898695439153 0.0 -7.765701771987959e-05 0.0004576039379873514 0.0 -7.199283828336023e-05 0.0004534212191189563 0.0 -7.101073880619927e-05 0.00045312805027679425 0.0 -6.727603454774498e-05 0.0004552645241685408 0.0 -6.588156770044941e-05 0.00044888400343636185 0.0 -6.923739590724351e-05 0.00045580632841381557 0.0 -7.476747818758992e-05 0.00045419898187828414 0.0 -6.960403105923015e-05 0.00045338061539368 0.0 -6.894868524698961e-05 0.0004561599075719231 0.0 -6.946446467595284e-05 0.0004557363571511362 0.0 -5.02093760726091e-05 0.0005272188255217731 0.0 -4.854277329161345e-05 0.0005272426618779819 0.0 -4.839313965827455e-05 0.0005295757383522099 0.0 -4.742620053139537e-05 0.000531783232771171 0.0 -4.4960738336088635e-05 0.0005371611029784027 0.0 -4.480804824094533e-05 0.0005421003338221053 0.0 -4.371036267572517e-05 0.0005473513022865227 0.0 -3.3806890390500094e-05 0.0005382622805993256 0.0 -4.423279247586607e-05 0.0005381896107522498 0.0 -4.543721115977859e-05 0.0005378710404003816 0.0 -4.951425573961871e-05 0.0005305305311921443 0.0 -5.3698916745022336e-05 0.0005358176883486346 0.0 -6.105556144926885e-05 0.0005218319405327513 0.0 -5.8668987980366865e-05 0.0005145928290918137 0.0 -5.642739848402173e-05 0.0005165936058188611 0.0 -6.648164901323784e-05 0.0005064143814448601 0.0 -6.555707022223177e-05 0.0005162748199749594 0.0 -6.607557644415934e-05 0.0005034530917374902 0.0 -6.368921031576976e-05 0.0004994184757564058 0.0 -6.576918196333681e-05 0.0004929099382363801 0.0 -6.880041861475819e-05 0.0004861806608208481 0.0 -7.727471895180885e-05 0.0004662935003798301 0.0 -6.570724179190483e-05 0.0004688071688812459 0.0 -6.453159630899366e-05 0.000462894788632815 0.0 -7.082127304164687e-05 0.0004644332733599117 0.0 -6.625976152694262e-05 0.0004659590657444221 0.0 -6.687892302707302e-05 0.00046864603309227564 0.0 -6.231052352320633e-05 0.0004839814415225326 0.0 -5.828786194961682e-05 0.00047762073346730403 0.0 -5.8812683924431545e-05 0.0004939542353752154 0.0 -5.391667541724243e-05 0.0004929414058300944 0.0 -5.4460694442791564e-05 0.0005127651600430575 0.0 -5.74984974378076e-05 0.0005007001627722592 0.0 -5.4369360407949796e-05 0.000516458630994021 0.0 -5.734160548594134e-05 0.0005176686794820498 0.0 -1.9236202193253975e-05 0.00035394678180240954 0.0 -2.009935939127794e-05 0.0003416150351477463 0.0 -2.018979043955469e-05 0.0003273617590876704 0.0 -1.9033475244329383e-05 0.0003128398979696359 0.0 -1.4576271949134985e-05 0.00030335273750163225 0.0 -1.1791438078474983e-05 0.0002906407836927389 0.0 -1.1013912620651348e-05 0.00028024552990421126 0.0 -9.93215397052271e-06 0.0002709083489031116 0.0 -8.75555964438528e-06 0.00025891196772984343 0.0 -1.0243592607958558e-05 0.00025232912712770856 0.0 -1.1301851195223344e-05 0.0002513333089702193 0.0 -1.3264488430139511e-05 0.000254782255017569 0.0 -1.5760762239874492e-05 0.00025088426050388717 0.0 -1.6531998819642173e-05 0.0002526649740337752 0.0 -1.7061003360344356e-05 0.0002514381675116787 0.0 -1.929725191783576e-05 0.0002527339400470157 0.0 -2.1512572258999722e-05 0.0002532412799674439 0.0 -2.0419834410226784e-05 0.00025316258369029567 0.0 -2.3138421024666866e-05 0.00025595091795025044 0.0 -2.4913388659620282e-05 0.00025617345240622425 0.0 -2.5735334869322277e-05 0.00025937290617304086 0.0 -2.69823348025037e-05 0.00026018466385330664 0.0 -2.6877484858641355e-05 0.00026115421668236735 0.0 -2.8472477941728343e-05 0.0002611772127196902 0.0 -2.9047716605183133e-05 0.0002729982846747801 0.0 -3.139717396218914e-05 0.0002820794615400835 0.0 -3.3464565024997395e-05 0.0002953867633668137 0.0 -3.6807423023691944e-05 0.00030828638912767226 0.0 -3.8108321536784186e-05 0.0003215039931339136 0.0 -3.804739531816403e-05 0.0003377510372869987 0.0 -3.5321311054429694e-05 0.0003489236209174862 0.0 -3.594658807330569e-05 0.00036164148154083363 0.0 -3.691296334010406e-05 0.00037256821325272016 0.0 -5.397073574269502e-05 0.000541637850613437 0.0 -5.503900638745702e-05 0.0005568263953628671 0.0 -5.258543348039802e-05 0.0005643591129177822 0.0 -5.5644950294583514e-05 0.0005815239191161636 0.0 -5.681711092209159e-05 0.0005913375503235395 0.0 -6.26595796330031e-05 0.0006035566574470162 0.0 -6.453038771312996e-05 0.0006162433305496205 0.0 -6.427343657417542e-05 0.0006341371598454543 0.0 -6.315184167451367e-05 0.0006427197596686622 0.0 -6.5989524442648e-05 0.0006602338364992128 0.0 -6.220193935123007e-05 0.0006582037058659681 0.0 -6.214492395627169e-05 0.0006546828774843229 0.0 -5.976039212931763e-05 0.0006562155515158669 0.0 -5.914911280257791e-05 0.0006547732074355068 0.0 -5.430723357565553e-05 0.0006526905113013482 0.0 -5.36722353823173e-05 0.0006526898503429185 0.0 -5.12556548830604e-05 0.000651832738655209 0.0 -4.8135327894553475e-05 0.0006517616333967616 0.0 -4.9023363129097384e-05 0.000652269358419339 0.0 -4.6820373849139684e-05 0.0006530739973532348 0.0 -4.4396230348668965e-05 0.0006517364562470093 0.0 -4.6510028418618614e-05 0.0006507189347020189 0.0 -4.4717784797305564e-05 0.0006512789913093075 0.0 -4.2872751608994314e-05 0.0006502021347936617 0.0 -4.42665404237329e-05 0.0006390698841163272 0.0 -4.395940414629939e-05 0.0006207485417360696 0.0 -4.4072307575362594e-05 0.0006143727031201293 0.0 -4.1356819547181185e-05 0.0006003017135551369 0.0 -4.184320256724515e-05 0.0005873568680627736 0.0 -3.869226261551402e-05 0.0005727203275237155 0.0 -4.182819832011389e-05 0.0005594492739847039 0.0 -3.912280784664345e-05 0.000544663186429842 0.0 -3.885893758268921e-05 0.0005298043169703425 0.0 -2.2141500626052336e-05 0.00037796471207670473 0.0 -3.089767915400226e-05 0.00035287961404829453 0.0 -3.055532072527641e-05 0.0003565071893699658 0.0 -2.981117618449718e-05 0.00036132636273156747 0.0 -2.7743364962249602e-05 0.0003671873048285927 0.0 -2.645323735322529e-05 0.0003716973769954955 0.0 -2.434150430002887e-05 0.00037437165553907704 0.0 -2.278392672483329e-05 0.00037039463555586387 0.0 -2.045004705450158e-05 0.00037645350593336043 0.0 -2.9099840257614668e-05 0.0003811942145840397 0.0 -2.8279847891854792e-05 0.00038278741705621676 0.0 -2.5533708427130348e-05 0.00038893289525771083 0.0 -2.864051805935832e-05 0.0003890118335712685 0.0 -2.5912952910173344e-05 0.00039067192462493216 0.0 -2.9723128218585617e-05 0.0003874373258189828 0.0 -2.6742034184667154e-05 0.0003903770737064237 0.0 -2.6719849284855834e-05 0.00039084880534108295 0.0 -2.6485668907465884e-05 0.0003860609063023456 0.0 -2.4182309963310396e-05 0.0003857019865559919 0.0 -2.3765105799635444e-05 0.0003828952186781424 0.0 -9.98045384948179e-07 0.00043921867886183904 0.0 -7.905007775377369e-06 0.00043146781180284185 0.0 -6.364050717196291e-06 0.00042915722640895826 0.0 -9.10419080930222e-06 0.0004197712535338902 0.0 -1.3604454290046691e-05 0.0004162578985927344 0.0 -1.2501431017011744e-05 0.00041084842808964816 0.0 -1.907799426362998e-05 0.00040367792176329126 0.0 -1.6719287598761287e-05 0.00039858096515546753 0.0 -2.098673287160011e-05 0.00039219075396810816 0.0 -2.100226940339162e-05 0.0003862430512220146 0.0 -3.4996606205443016e-05 0.00035500957290227124 0.0 -3.2233494935454804e-05 0.00035387305872471464 0.0 -3.4280959936451085e-05 0.00035600195017903197 0.0 -3.309880405496871e-05 0.000356174955781742 0.0 -3.4924247472541354e-05 0.0003604085283153491 0.0 -3.085471378792052e-05 0.00035865211385067893 0.0 -3.8515315156495606e-05 0.00035840107701261026 0.0 -3.0078153392008187e-05 0.0003607242484300145 0.0 -3.741400990532457e-05 0.0003594995293964891 0.0 -2.669284083946679e-05 0.00035823757936601585 0.0 -3.918121873326571e-05 0.0003644679058589985 0.0 -3.8781887657952534e-05 0.000357339002237497 0.0 -3.4543505965843724e-05 0.00036303472454231046 0.0 -3.0801324546795924e-05 0.0003576195254328257 0.0 -3.322919703826649e-05 0.0003569645754348418 0.0 -3.1067814589751744e-05 0.00035917339936958185 0.0 -3.505661843142732e-05 0.00036169119794316157 0.0 -2.663159681503639e-05 0.0003585598277272776 0.0 -3.150438985585349e-05 0.0003608146305572983 0.0 -3.5396654847248514e-05 0.0003615006139498377 0.0 -3.2712656314835224e-05 0.00036067204527094767 0.0 -3.2905581393800945e-05 0.00035955072669522834 0.0 -3.546079180147971e-05 0.0003586634180395357 0.0 -3.172050212453392e-05 0.00035809197762856084 0.0 -3.6678823040166046e-05 0.0003633873182419809 0.0 -3.384998266622831e-05 0.00036303681388028956 0.0 -2.955712786164604e-05 0.00036239970655469063 0.0 -2.868276808966387e-05 0.0003632207019137229 0.0 -3.158266348406277e-05 0.0003631998293578564 0.0 -3.0194873321362397e-05 0.00036295276919031473 0.0 -3.380598872720642e-05 0.00036446381546269404 0.0 -3.15869800537361e-05 0.00036187039528625997 0.0 -3.2754399313734874e-05 0.0003637571381797734 0.0 -3.2811738418785646e-05 0.00036265453913067355 0.0 -3.672354916901785e-05 0.00036721439484465164 0.0 -3.333233185933107e-05 0.00036376763689330543 0.0 -3.482224068956667e-05 0.0003635982476540598 0.0 -3.1951851639691703e-05 0.000358645015629006 0.0 -3.146291186888758e-05 0.0003611134247963527 0.0 -2.8657534799715726e-05 0.0003684578778781334 0.0 -3.0488215312336953e-05 0.0003712781007420775 0.0 -3.080318049493045e-05 0.0003688915181759236 0.0 -3.0414554541052957e-05 0.00037203426424175655 0.0 -3.233222237530913e-05 0.00037129020734908943 0.0 -3.1252188851216795e-05 0.00037151834588543573 0.0 -3.302319099145367e-05 0.000371852116961261 0.0 -2.8762867030231997e-05 0.0003680847545138574 0.0 -3.0437334447104912e-05 0.0003682360269503278 0.0 -3.3981442727714677e-05 0.00036742996571314054 0.0 -3.097290689323866e-05 0.0003608725854830892 0.0 -2.6830414672369324e-05 0.0003605864531871922 0.0 -2.7826344672056573e-05 0.00036246034262722964 0.0 -2.7607009360203017e-05 0.0003744387623985203 0.0 -2.690323760788149e-05 0.0003751279950539493 0.0 -2.8823853368630638e-05 0.0003783539143235922 0.0 -2.9306556803686674e-05 0.00037680527353531465 0.0 -2.5614221852471848e-05 0.0003771977727400863 0.0 -3.4438181206911026e-05 0.00037801207552249337 0.0 -3.070557856483076e-05 0.0003759530223684118 0.0 -3.197157602500792e-05 0.00037574320124002144 0.0 -3.158430472148866e-05 0.000376490037216672 0.0 -2.8528305201991015e-05 0.00036780858048796955 0.0 -3.281484012182704e-05 0.0003739024430370963 0.0 -2.698616903803999e-05 0.00036405035356106507 0.0 -3.414218075079475e-05 0.0003670604201818454 0.0 -2.5910864834771445e-05 0.00037777247651583 0.0 -2.536199770131961e-05 0.00038222679499358246 0.0 -2.6471780112529396e-05 0.0003839028595961252 0.0 -2.8164881081809905e-05 0.00038491710454141516 0.0 -2.9497842492480418e-05 0.00038741381778313627 0.0 -2.7518495384923088e-05 0.00038369166103656584 0.0 -2.610491308170863e-05 0.00038584900259626994 0.0 -3.0317508828395567e-05 0.0003835066464271482 0.0 -2.9594660959633452e-05 0.000379345941773505 0.0 -2.8225024460037323e-05 0.00038629767721703225 0.0 -2.789822784279246e-05 0.00037214066375661616 0.0 -3.174706315826266e-05 0.00037546874967878097 0.0 -2.337141214246699e-05 0.00036133184456635717 0.0 -2.1481552154565088e-05 0.000377587797889188 0.0 -1.9872152129937468e-05 0.0003738947242269355 0.0 -1.2672582586494082e-05 0.000391315095831579 0.0 -8.757536136600098e-06 0.0003941468686944133 0.0 -1.372365940404207e-05 0.00040135694678835107 0.0 -8.287793327350563e-06 0.000399374419642193 0.0 -1.1122232436695362e-05 0.00042471316829971684 0.0 -8.128056977490669e-06 0.00043156197809330346 0.0 2.508409254881134e-06 0.0004392600612078135 0.0 -1.2183647465676675e-05 0.00044084306164547037 0.0 -2.4779635888457996e-05 0.00038479840080258844 0.0 -2.0416711062161126e-05 0.0003930465791103407 0.0 -1.8319852976189618e-05 0.00039245635894910716 0.0 -2.021829406817998e-05 0.0004040078133394357 0.0 -6.178823647959681e-06 0.0004080184269167508 0.0 -1.7840530804028216e-05 0.0004264168449201205 0.0