<?xml version="1.0" ?>
<VTKFile type="UnstructuredGrid" version="0.1" byte_order="LittleEndian">
<UnstructuredGrid>
<Piece NumberOfPoints="1500" NumberOfCells="1404">
<Points>
<DataArray type="Float32" format="ascii" NumberOfComponents="3">0.0149999997 0.0299999993 0.0 0.0149999997 0.0401869528 0.0 0.00973947905 0.0450999998 0.0 0.0 0.0450999998 0.0 0.0 0.0299999993 0.0 0.0149999997 0.0500130467 0.0 0.0149999997 0.0599999987 0.0 0.0 0.0599999987 0.0 0.0299999993 0.0299999993 0.0 0.0299999993 0.0450999998 0.0 0.0195885208 0.0450999998 0.0 0.0299999993 0.0599999987 0.0 0.0 0.0 0.0 0.0299999993 0.0 0.0 0.0299999993 0.0900000036 0.0 0.0 0.0900000036 0.0 0.00187499996 0.0299999993 0.0 0.00374999992 0.0299999993 0.0 0.00562500022 0.0299999993 0.0 0.00749999983 0.0299999993 0.0 0.00937500037 0.0299999993 0.0 0.0112500004 0.0299999993 0.0 0.0131249996 0.0299999993 0.0 0.0149999997 0.0309388097 0.0 0.0149999997 0.0315993913 0.0 0.0149999997 0.0322599746 0.0 0.0149999997 0.0329205543 0.0 0.0149999997 0.0335811377 0.0 0.0149999997 0.0342417173 0.0 0.0149999997 0.0349023007 0.0 0.0149999997 0.0355628803 0.0 0.0149999997 0.0362234637 0.0 0.0149999997 0.0368840471 0.0 0.0149999997 0.0375446267 0.0 0.0149999997 0.0382052101 0.0 0.0149999997 0.0388657898 0.0 0.0149999997 0.0395263731 0.0 0.0145518444 0.0401767567 0.0 0.0141046178 0.0402073525 0.0 0.0136620263 0.0402784906 0.0 0.0132277375 0.0403895788 0.0 0.0128053501 0.0405397005 0.0 0.012398364 0.0407276079 0.0 0.0120101506 0.0409517474 0.0 0.0116439275 0.0412102602 0.0 0.0113027301 0.0415010042 0.0 0.0109893847 0.0418215692 0.0 0.0107064871 0.042169299 0.0 0.0104563832 0.0425413139 0.0 0.0102411434 0.0429345332 0.0 0.010062553 0.0433456935 0.0 0.00992209092 0.0437713899 0.0 0.00982092042 0.0442080945 0.0 0.00975988153 0.0446521938 0.0 0.00910791382 0.0450999998 0.0 0.00847634859 0.0450999998 0.0 0.0078447843 0.0450999998 0.0 0.00721321953 0.0450999998 0.0 0.00658165431 0.0450999998 0.0 0.00595008954 0.0450999998 0.0 0.00531852478 0.0450999998 0.0 0.00468696002 0.0450999998 0.0 0.00405539526 0.0450999998 0.0 0.00342383026 0.0450999998 0.0 0.0027922655 0.0450999998 0.0 0.00216070074 0.0450999998 0.0 0.00152913586 0.0450999998 0.0 0.000897571037 0.0450999998 0.0 0.0 0.0438416675 0.0 0.0 0.0425833352 0.0 0.0 0.0413249992 0.0 0.0 0.0400666669 0.0 0.0 0.0388083346 0.0 0.0 0.0375499986 0.0 0.0 0.0362916663 0.0 0.0 0.035033334 0.0 0.0 0.0337750018 0.0 0.0 0.0325166658 0.0 0.0 0.0312583335 0.0 0.00975988153 0.0455478057 0.0 0.00982092042 0.045991905 0.0 0.00992209092 0.0464286096 0.0 0.010062553 0.046854306 0.0 0.0102411434 0.0472654663 0.0 0.0104563832 0.0476586856 0.0 0.0107064871 0.0480307005 0.0 0.0109893847 0.0483784303 0.0 0.0113027301 0.0486989953 0.0 0.0116439275 0.0489897393 0.0 0.0120101506 0.0492482521 0.0 0.012398364 0.0494723916 0.0 0.0128053501 0.049660299 0.0 0.0132277375 0.0498104207 0.0 0.0136620263 0.0499215089 0.0 0.0141046178 0.049992647 0.0 0.0145518444 0.0500232428 0.0 0.0149999997 0.0506606586 0.0 0.0149999997 0.0513082705 0.0 0.0149999997 0.0519558825 0.0 0.0149999997 0.0526034944 0.0 0.0149999997 0.05325111 0.0 0.0149999997 0.0538987219 0.0 0.0149999997 0.0545463338 0.0 0.0149999997 0.0551939458 0.0 0.0149999997 0.0558415577 0.0 0.0149999997 0.0564891733 0.0 0.0149999997 0.0571367852 0.0 0.0149999997 0.0577843972 0.0 0.0149999997 0.0584320091 0.0 0.0149999997 0.059079621 0.0 0.0131249996 0.0599999987 0.0 0.0112500004 0.0599999987 0.0 0.00937500037 0.0599999987 0.0 0.00749999983 0.0599999987 0.0 0.00562500022 0.0599999987 0.0 0.00374999992 0.0599999987 0.0 0.00187499996 0.0599999987 0.0 0.0 0.0587583333 0.0 0.0 0.057516668 0.0 0.0 0.0562749989 0.0 0.0 0.0550333336 0.0 0.0 0.0537916683 0.0 0.0 0.0525499992 0.0 0.0 0.0513083339 0.0 0.0 0.0500666648 0.0 0.0 0.0488249995 0.0 0.0 0.0475833341 0.0 0.0 0.0463416651 0.0 0.0195713751 0.0446894132 0.0 0.0195200555 0.0442816839 0.0 0.0194349196 0.0438796543 0.0 0.0193165597 0.0434861258 0.0 0.0191658027 0.0431038328 0.0 0.0189836938 0.0427354388 0.0 0.0187715068 0.0423835143 0.0 0.0185307153 0.0420505032 0.0 0.0182629973 0.0417387299 0.0 0.0179702155 0.0414503627 0.0 0.0176544115 0.041187413 0.0 0.0173177831 0.0409517065 0.0 0.0169626754 0.0407448858 0.0 0.0165915582 0.0405683964 0.0 0.0162070207 0.040423464 0.0 0.0158117376 0.0403110944 0.0 0.0154084601 0.0402320772 0.0 0.0168750007 0.0299999993 0.0 0.0187500007 0.0299999993 0.0 0.0206250008 0.0299999993 0.0 0.0225000009 0.0299999993 0.0 0.0243749991 0.0299999993 0.0 0.0262499992 0.0299999993 0.0 0.0281249993 0.0299999993 0.0 0.0299999993 0.0312583335 0.0 0.0299999993 0.0325166658 0.0 0.0299999993 0.0337750018 0.0 0.0299999993 0.035033334 0.0 0.0299999993 0.0362916663 0.0 0.0299999993 0.0375499986 0.0 0.0299999993 0.0388083346 0.0 0.0299999993 0.0400666669 0.0 0.0299999993 0.0413249992 0.0 0.0299999993 0.0425833352 0.0 0.0299999993 0.0438416675 0.0 0.0290404987 0.0450999998 0.0 0.0283653568 0.0450999998 0.0 0.0276902169 0.0450999998 0.0 0.0270150751 0.0450999998 0.0 0.0263399333 0.0450999998 0.0 0.0256647933 0.0450999998 0.0 0.0249896515 0.0450999998 0.0 0.0243145097 0.0450999998 0.0 0.0236393698 0.0450999998 0.0 0.0229642279 0.0450999998 0.0 0.0222890861 0.0450999998 0.0 0.0216139443 0.0450999998 0.0 0.0209388044 0.0450999998 0.0 0.0202636626 0.0450999998 0.0 0.0281249993 0.0599999987 0.0 0.0262499992 0.0599999987 0.0 0.0243749991 0.0599999987 0.0 0.0225000009 0.0599999987 0.0 0.0206250008 0.0599999987 0.0 0.0187500007 0.0599999987 0.0 0.0168750007 0.0599999987 0.0 0.0154084601 0.049967926 0.0 0.0158117376 0.0498889051 0.0 0.0162070207 0.0497765355 0.0 0.0165915582 0.0496316031 0.0 0.0169626754 0.0494551137 0.0 0.0173177831 0.049248293 0.0 0.0176544115 0.0490125902 0.0 0.0179702155 0.0487496369 0.0 0.0182629973 0.0484612696 0.0 0.0185307153 0.0481494963 0.0 0.0187715068 0.0478164889 0.0 0.0189836938 0.0474645607 0.0 0.0191658027 0.0470961705 0.0 0.0193165597 0.0467138775 0.0 0.0194349196 0.0463203453 0.0 0.0195200555 0.0459183156 0.0 0.0195713751 0.0455105864 0.0 0.0299999993 0.0463416651 0.0 0.0299999993 0.0475833341 0.0 0.0299999993 0.0488249995 0.0 0.0299999993 0.0500666648 0.0 0.0299999993 0.0513083339 0.0 0.0299999993 0.0525499992 0.0 0.0299999993 0.0537916683 0.0 0.0299999993 0.0550333336 0.0 0.0299999993 0.0562749989 0.0 0.0299999993 0.057516668 0.0 0.0299999993 0.0587583333 0.0 0.0 0.0270000007 0.0 0.0 0.0240000002 0.0 0.0 0.0209999997 0.0 0.0 0.0179999992 0.0 0.0 0.0149999997 0.0 0.0 0.0120000001 0.0 0.0 0.00899999961 0.0 0.0 0.00600000005 0.0 0.0 0.00300000003 0.0 0.00187499996 0.0 0.0 0.00374999992 0.0 0.0 0.00562500022 0.0 0.0 0.00749999983 0.0 0.0 0.00937500037 0.0 0.0 0.0112500004 0.0 0.0 0.0131249996 0.0 0.0 0.0149999997 0.0 0.0 0.0168750007 0.0 0.0 0.0187500007 0.0 0.0 0.0206250008 0.0 0.0 0.0225000009 0.0 0.0 0.0243749991 0.0 0.0 0.0262499992 0.0 0.0 0.0281249993 0.0 0.0 0.0299999993 0.00300000003 0.0 0.0299999993 0.00600000005 0.0 0.0299999993 0.00899999961 0.0 0.0299999993 0.0120000001 0.0 0.0299999993 0.0149999997 0.0 0.0299999993 0.0179999992 0.0 0.0299999993 0.0209999997 0.0 0.0299999993 0.0240000002 0.0 0.0299999993 0.0270000007 0.0 0.0299999993 0.063000001 0.0 0.0299999993 0.0659999996 0.0 0.0299999993 0.0689999983 0.0 0.0299999993 0.0719999969 0.0 0.0299999993 0.075000003 0.0 0.0299999993 0.0780000016 0.0 0.0299999993 0.0810000002 0.0 0.0299999993 0.0839999989 0.0 0.0299999993 0.0869999975 0.0 0.0281249993 0.0900000036 0.0 0.0262499992 0.0900000036 0.0 0.0243749991 0.0900000036 0.0 0.0225000009 0.0900000036 0.0 0.0206250008 0.0900000036 0.0 0.0187500007 0.0900000036 0.0 0.0168750007 0.0900000036 0.0 0.0149999997 0.0900000036 0.0 0.0131249996 0.0900000036 0.0 0.0112500004 0.0900000036 0.0 0.00937500037 0.0900000036 0.0 0.00749999983 0.0900000036 0.0 0.00562500022 0.0900000036 0.0 0.00374999992 0.0900000036 0.0 0.00187499996 0.0900000036 0.0 0.0 0.0869999975 0.0 0.0 0.0839999989 0.0 0.0 0.0810000002 0.0 0.0 0.0780000016 0.0 0.0 0.075000003 0.0 0.0 0.0719999969 0.0 0.0 0.0689999983 0.0 0.0 0.0659999996 0.0 0.0 0.063000001 0.0 0.00240605418 0.0317476094 0.0 0.0132285897 0.0308372527 0.0 0.0114639541 0.0308285281 0.0 0.00970989279 0.0308664478 0.0 0.00796741433 0.030946292 0.0 0.00622726884 0.0310834199 0.0 0.00444168784 0.0313186944 0.0 0.0115238708 0.0404538177 0.0 0.0110589247 0.0399643853 0.0 0.0105802957 0.0394543298 0.0 0.0100896806 0.0389274582 0.0 0.00958756451 0.0383866653 0.0 0.00907252356 0.0378334895 0.0 0.00854044221 0.0372676216 0.0 0.00798357651 0.0366861634 0.0 0.00738931261 0.0360825956 0.0 0.00673822826 0.0354451761 0.0 0.00600026548 0.0347540006 0.0 0.00512524834 0.0339741185 0.0 0.00401390065 0.0330347866 0.0 0.000793838175 0.0438955426 0.0 0.000772442494 0.0426918976 0.0 0.000783006602 0.0414899141 0.0 0.000811753387 0.0402907245 0.0 0.000856733182 0.0390956625 0.0 0.000921554572 0.037906155 0.0 0.00101479655 0.0367233306 0.0 0.00115271518 0.0355465077 0.0 0.00136729016 0.0343677737 0.0 0.00172855402 0.0331514254 0.0 0.0133339632 0.0315873995 0.0 0.0134397261 0.0323022977 0.0 0.0135442559 0.032998085 0.0 0.0136464294 0.0336812399 0.0 0.013745822 0.0343553573 0.0 0.013842525 0.0350228548 0.0 0.0139368745 0.0356853306 0.0 0.0140292263 0.0363436677 0.0 0.0141198216 0.0369979888 0.0 0.0142087657 0.0376475193 0.0 0.0142960874 0.0382902175 0.0 0.0143820234 0.0389216021 0.0 0.0144678745 0.0395311117 0.0 0.0116815548 0.0316202343 0.0 0.011899055 0.0323765688 0.0 0.0121123437 0.033103589 0.0 0.0123189483 0.0338073969 0.0 0.0125182495 0.0344934613 0.0 0.0127108386 0.0351662561 0.0 0.0128977867 0.0358290039 0.0 0.0130801173 0.0364835784 0.0 0.0132585336 0.0371304527 0.0 0.0134333326 0.0377685912 0.0 0.0136044715 0.0383952036 0.0 0.0137717454 0.0390052013 0.0 0.0139350798 0.0395906046 0.0 0.0100520272 0.0317044854 0.0 0.010392216 0.0325013697 0.0 0.0107216369 0.0332574546 0.0 0.01103618 0.0339790136 0.0 0.0113357538 0.0346737355 0.0 0.0116223767 0.0353484601 0.0 0.011898635 0.0360082686 0.0 0.0121667851 0.0366562307 0.0 0.0124283545 0.03
[...]
<PointData>
<DataArray Name="displ" NumberOfComponents="3" type="Float32" format="ascii">-1.3241772935955419e-05 0.00010748925163697876 0.0 -1.8883206590472138e-05 0.00011275638839698519 0.0 6.618633129437894e-06 0.0001389652475201335 0.0 -2.04960169574675e-06 0.0001381801571338576 0.0 -4.951233344604268e-06 0.00011446023577859447 0.0 -7.993591274099312e-06 0.00017321519483633598 0.0 -1.5793383135214953e-05 0.0001747187339602451 0.0 -1.555236974740712e-05 0.00016693576702159665 0.0 -1.4988267785679676e-05 0.00012133741941955245 0.0 -2.506401982688123e-05 0.00013983460134662072 0.0 -1.976358971498261e-05 0.00014759868335727428 0.0 -1.8483079612569144e-05 0.0001652802740463971 0.0 -4.877540522905602e-06 8.088389205527689e-05 0.0 -1.4658257654882758e-05 8.03748735618941e-05 0.0 -2.1215825763448206e-05 0.0002113090045425534 0.0 -1.4806323718831706e-05 0.0002077973801350998 0.0 -5.748885873736695e-06 0.00011270867334887856 0.0 -5.807046518593364e-06 0.00011268726361791076 0.0 -8.373067457618604e-06 0.00011253583916898488 0.0 -9.830124184937997e-06 0.00011091853205506965 0.0 -1.0019237892716136e-05 0.000109933608598423 0.0 -1.180622828535169e-05 0.00010732309581905963 0.0 -1.4141491297055443e-05 0.00010743075024002767 0.0 -1.3295284508747847e-05 0.00010816512116904198 0.0 -1.4092913546742406e-05 0.00010587751322703536 0.0 -1.418675773169567e-05 0.00010829828202213141 0.0 -1.255291195931861e-05 0.0001075697732302257 0.0 -1.4154200162132419e-05 0.0001100667607124143 0.0 -1.4962373154884191e-05 0.00011181718978813289 0.0 -1.3376140308682479e-05 0.00010980110590915952 0.0 -1.4249749697641791e-05 0.00010961171176513808 0.0 -1.3023832087178684e-05 0.0001105710037248123 0.0 -1.3226943719208718e-05 0.00010937277438637841 0.0 -1.3586151499667724e-05 0.00010782544972960736 0.0 -1.1573514966977632e-05 0.00011639084463663356 0.0 -8.398536761256981e-06 0.00010714929202925354 0.0 -8.964633012765668e-06 0.00011248044869086707 0.0 6.40901100317051e-07 0.00010691460658631941 0.0 -1.5637824048704286e-05 0.00011507717081023313 0.0 -3.261190188951976e-06 0.00011540447866788622 0.0 -1.3685402265805246e-05 0.00011736962309025666 0.0 -7.333814633781315e-06 0.00011135989149020656 0.0 -1.2187303199002225e-05 0.00012298844484919167 0.0 -2.6678018903269466e-06 0.00010734024851461729 0.0 -4.289540376823514e-07 0.00011361574454340039 0.0 -5.724549680497293e-06 0.00012224451417742156 0.0 -9.782803697485457e-07 0.00012052218581372118 0.0 -3.742225137703807e-06 0.00011574808858379368 0.0 4.164827215962692e-06 0.00011698070218390017 0.0 -8.259274956183252e-06 0.00012707738218236411 0.0 -7.211762573066776e-08 0.00012530057728863173 0.0 -3.233195876150179e-06 0.000140100576534309 0.0 -7.25549726794173e-07 0.000127123571556056 0.0 -5.617312288301456e-06 0.000140434263596772 0.0 -3.706258663948019e-06 0.00014302845844434942 0.0 -2.394810661920842e-06 0.00013860642660516105 0.0 -9.04820900571091e-06 0.00014438818967842055 0.0 -1.1722968584891624e-06 0.0001379635237432422 0.0 -2.9671271018925177e-06 0.0001419346935259201 0.0 -2.3153114463022529e-07 0.00013554881564408427 0.0 -8.19082301949454e-06 0.0001410037388172641 0.0 -2.5258573763805044e-06 0.00013348736483531322 0.0 -3.8609566860621915e-06 0.0001393294373349175 0.0 -1.4600332786727445e-06 0.00013558629023853173 0.0 -2.4899675600185673e-06 0.00013535141039931943 0.0 -3.3145594722393685e-06 0.00013943847049463785 0.0 -3.1705730387240154e-06 0.00014086094807045285 0.0 -5.563518005954165e-06 0.00013783856310418374 0.0 -1.6457193425559565e-06 0.00013794842461987953 0.0 -4.838499537139756e-06 0.00013692827776229372 0.0 -4.135412525397218e-06 0.00013612994293595005 0.0 -4.110287308387218e-06 0.00013173294929752505 0.0 -4.991519785964968e-06 0.00013098907541415585 0.0 -8.529677498638526e-06 0.00012669948018566638 0.0 -4.907146291287919e-06 0.0001268891999407167 0.0 -8.168746760646433e-06 0.00012010062214705393 0.0 -5.124939077097025e-06 0.00012093576066747827 0.0 -3.4821087479055186e-06 0.00011988395608675641 0.0 -6.527432722748903e-06 0.00011733255133173776 0.0 1.3713388675311868e-06 0.0001457384022507749 0.0 -4.5884286783128855e-06 0.00015047378509485358 0.0 2.449852896249775e-06 0.00014825049736535834 0.0 -5.278582518943187e-06 0.00016099541858715781 0.0 5.187965620460855e-06 0.00016491047856805887 0.0 -1.212710079085932e-06 0.00016275750398756113 0.0 -9.959365902174297e-06 0.00015438535781388686 0.0 -1.4432681881042761e-06 0.0001701560437110759 0.0 -6.888938972693257e-06 0.00016147496105112135 0.0 -9.483954688093408e-06 0.00016456730365832755 0.0 -1.1174766380873913e-05 0.00015923028351338413 0.0 -7.669752300217819e-06 0.00017123609069065836 0.0 -6.284625125533799e-06 0.00017168399816967777 0.0 -1.640780449872607e-05 0.0001669561043409134 0.0 -8.275409422521583e-06 0.00017273875884710557 0.0 -7.817754259834771e-07 0.00016324070110494105 0.0 -1.7590637901599093e-05 0.00017693364869200907 0.0 -1.620432273938628e-05 0.00016880173967400282 0.0 -1.158946839533093e-05 0.00016603006762014338 0.0 -9.242249618925096e-06 0.00017198808512848245 0.0 -1.4497174945626125e-05 0.00017081689689254942 0.0 -1.4354421540928588e-05 0.0001723896718715436 0.0 -1.325362724830774e-05 0.0001665312877785111 0.0 -1.3507427496193574e-05 0.00017184562638991726 0.0 -1.0567691423512986e-05 0.00017226373288688158 0.0 -1.4838431642974321e-05 0.0001699605461008012 0.0 -1.5411555835395965e-05 0.00017340761943753454 0.0 -1.5315424867570923e-05 0.00017420281101633702 0.0 -1.4342950091624128e-05 0.00017428645938777164 0.0 -1.5172525440975177e-05 0.00017486659631014889 0.0 -1.5401102662685035e-05 0.0001756930931099079 0.0 -1.5547372371842185e-05 0.00017325548497594008 0.0 -1.4369557516454463e-05 0.00017432942454116422 0.0 -1.6572377506433723e-05 0.00017239813168360164 0.0 -1.6538394990963047e-05 0.00017082489318882892 0.0 -1.5661768683582414e-05 0.00017035047030067624 0.0 -1.7005053690412502e-05 0.00016807303440034496 0.0 -1.615104336786302e-05 0.00016631149784342535 0.0 -1.4981390122970008e-05 0.00016370726420564035 0.0 -1.4778596841459486e-05 0.00016320621890574756 0.0 -1.4053019936861357e-05 0.00016233771372789436 0.0 -1.3312756664953293e-05 0.0001615264785463796 0.0 -1.1958711139452467e-05 0.00015536833341117938 0.0 -9.894219719370384e-06 0.00015639719696182794 0.0 -1.0309384374455723e-05 0.00014963319015337648 0.0 -8.957998828399004e-06 0.00014727197697017697 0.0 -2.7679689232974835e-06 0.0001463478494559388 0.0 -4.723980191955782e-06 0.00014517737782350165 0.0 -3.4092336230207464e-06 0.00014682305211496694 0.0 -2.2780372603179158e-05 0.00013906936567935037 0.0 -2.061989875296381e-05 0.00013157131508619547 0.0 -2.160803811847871e-05 0.00014805134661693086 0.0 -2.2431779798043188e-05 0.00013511940730002317 0.0 -1.79792052270239e-05 0.00012746254843540696 0.0 -1.964702935238928e-05 0.00013117093925370132 0.0 -2.5604224328917717e-05 0.00011960659859522353 0.0 -2.1692270380257315e-05 0.00012590883220731713 0.0 -2.745581810776989e-05 0.00010647893427718221 0.0 -1.907778598093835e-05 0.00012411747685546845 0.0 -2.41050192302499e-05 0.00011470065001562718 0.0 -1.4930074332965169e-05 0.0001225143069623512 0.0 -1.16469322701335e-05 0.00011450653121500798 0.0 -1.9490568560647918e-05 0.00011505533220800635 0.0 -1.284126808690143e-05 0.00011439076446503534 0.0 -1.1506761050910058e-05 0.00011256688379167322 0.0 -8.564639549322622e-06 0.00011237120696393064 0.0 -1.5874453033471794e-05 0.0001091774088045912 0.0 -1.5537123615411548e-05 0.00010994705699102381 0.0 -1.5857794549810448e-05 0.00011502170635331816 0.0 -1.7189907156863365e-05 0.00011641975955061262 0.0 -1.64275802525851e-05 0.00012080216833794867 0.0 -1.807096130921713e-05 0.00012165619998713074 0.0 -1.8106692351283156e-05 0.0001229318638499931 0.0 -1.8210744698359548e-05 0.00012435497646300688 0.0 -1.8196819638892277e-05 0.00012678961872259606 0.0 -1.621313834761465e-05 0.0001263043699773467 0.0 -1.8200270279302915e-05 0.00013284693329399056 0.0 -1.7152858711407788e-05 0.00013540018381167038 0.0 -1.8983981855057237e-05 0.00014092667860951522 0.0 -1.887586099541011e-05 0.0001387489296094004 0.0 -2.1912722275904538e-05 0.0001498052116732254 0.0 -2.4142028745409577e-05 0.00013597214291350437 0.0 -2.6076910441764143e-05 0.00014086561070219896 0.0 -2.5059335277892687e-05 0.00013663303724588185 0.0 -2.3337332267498326e-05 0.00014204393210735366 0.0 -2.0918477656211214e-05 0.00014392912221810553 0.0 -2.0318925247793615e-05 0.0001420290059873642 0.0 -1.9619258663650503e-05 0.0001394426516889745 0.0 -2.2997693484818195e-05 0.00014363836441278166 0.0 -2.5112708705842363e-05 0.00014277466886896268 0.0 -2.6938107341664164e-05 0.00014141968983843816 0.0 -1.851366989510928e-05 0.0001435076586906432 0.0 -2.2091476277474147e-05 0.00013789112431205163 0.0 -1.8111533171235528e-05 0.000146767768629959 0.0 -2.4503025174122206e-05 0.0001429575273720306 0.0 -2.4189407221711018e-05 0.00015012803152420834 0.0 -1.7430050082839057e-05 0.00013668510117138388 0.0 -2.0821385845974436e-05 0.0001461129612549153 0.0 -1.5141635336429116e-05 0.0001654539192542306 0.0 -1.616913347182535e-05 0.0001657275712573362 0.0 -1.4855541947045979e-05 0.00016696098548654733 0.0 -1.5683883285362558e-05 0.00016630987261325957 0.0 -1.63625386688526e-05 0.00016779867548961607 0.0 -1.5206398956422553e-05 0.00017050933648326405 0.0 -1.4263561759408141e-05 0.00017251441370750496 0.0 -7.160249922380862e-06 0.00017332286345053447 0.0 -2.206669494023728e-05 0.00017194675579803838 0.0 -1.416171247710823e-05 0.00017035549817291505 0.0 -1.333112478719963e-05 0.0001638294074721545 0.0 -1.701847934328304e-05 0.00017362040612312505 0.0 -1.7995864566864484e-05 0.00015980485148846577 0.0 -1.9691350779184594e-05 0.0001741501451797288 0.0 -1.2966476350962607e-05 0.00016066174394870547 0.0 -2.1122192687955637e-05 0.00016518387635145417 0.0 -2.0595266983276363e-05 0.00016561768807666052 0.0 -2.102225210531617e-05 0.00016283921539713713 0.0 -1.4736547660595589e-05 0.00016158804304122314 0.0 -2.1077118619427664e-05 0.00014863761153850307 0.0 -2.5140465672227565e-05 0.00016104437187594087 0.0 -3.0346685040750238e-05 0.00014198069307834606 0.0 -2.1246770858590843e-05 0.0001578026387760042 0.0 -2.1345413727822123e-05 0.00014738718044080958 0.0 -2.413853010122168e-05 0.00014596286634246312 0.0 -2.064471455889489e-05 0.0001427709111602677 0.0 -2.1566055519984172e-05 0.0001402621403976508 0.0 -2.0573300208331577e-05 0.0001538911440677433 0.0 -1.951231610088419e-05 0.00014706452030874197 0.0 -1.7169351802502434e-05 0.00015120385882292723 0.0 -1.7249976363992446e-05 0.00014936095627557296 0.0 -1.6339074001667113e-05 0.00016449699855260787 0.0 -1.935885418000025e-05 0.0001608728186564242 0.0 -1.7724555915902137e-05 0.0001602103623937865 0.0 -2.0302125517213637e-05 0.00016229807680981446 0.0 -3.675725277163578e-06 0.0001081911982731087 0.0 -5.018567416613498e-06 0.00010651807249748764 0.0 -3.152544640633931e-06 0.00010163835579814028 0.0 -2.559361451391601e-06 9.822916896150898e-05 0.0 -2.620030610485069e-06 9.533463735263121e-05 0.0 -3.33616791035549e-06 9.18372602222759e-05 0.0 -4.0023561771288275e-06 8.818139534475294e-05 0.0 -5.080589000873724e-06 8.675183879134339e-05 0.0 -4.649589724577544e-06 8.340300412401538e-05 0.0 -6.930837338765654e-06 8.185950990096598e-05 0.0 -8.585865517545014e-06 8.156197629633935e-05 0.0 -8.099122041741779e-06 8.431668741386209e-05 0.0 -9.427079894002894e-06 8.281460134673571e-05 0.0 -1.0355514920593623e-05 8.237902280420903e-05 0.0 -1.0198883637132111e-05 8.365767685089018e-05 0.0 -1.2951995187845101e-05 8.369510127858927e-05 0.0 -1.3769032753774932e-05 8.29027931264391e-05 0.0 -1.2317156761859342e-05 8.191170917218881e-05 0.0 -1.411197322685528e-05 8.366858824956691e-05 0.0 -1.4933659662588647e-05 8.295552667925694e-05 0.0 -1.4045905600244839e-05 8.419674254129342e-05 0.0 -1.5255190055209648e-05 8.430549748663746e-05 0.0 -1.3090294900863212e-05 8.232539014135184e-05 0.0 -1.3684363480124078e-05 8.296593682795293e-05 0.0 -1.4028486855067783e-05 8.694853177547453e-05 0.0 -1.5235450134997965e-05 9.027723233222502e-05 0.0 -1.5532718629966572e-05 9.408716209635012e-05 0.0 -1.7068462733779293e-05 9.802289037303396e-05 0.0 -1.946373092081509e-05 0.00010336127694969659 0.0 -1.9037454306573275e-05 0.00010702273957350439 0.0 -1.8150458553841485e-05 0.00010976575315517687 0.0 -1.6753986450625523e-05 0.0001148806253018763 0.0 -1.6005065423377707e-05 0.00011767837708622144 0.0 -1.887479492826869e-05 0.00017064665420255077 0.0 -1.884257243993335e-05 0.0001764276641318813 0.0 -1.7315407106866108e-05 0.0001778061283062859 0.0 -1.5389775768691915e-05 0.00018373085432691323 0.0 -1.4089321654046009e-05 0.0001887841460389795 0.0 -1.6262145762422834e-05 0.00019074541813258696 0.0 -1.8298386408296073e-05 0.0001944132327382431 0.0 -2.2470568263809405e-05 0.00019867407632327317 0.0 -2.3988664302475927e-05 0.00020483100750980898 0.0 -2.0867414963947558e-05 0.00021008835302465428 0.0 -2.143085571071046e-05 0.00020907078276463556 0.0 -2.2466361321774036e-05 0.0002078283357232519 0.0 -1.9594342962768e-05 0.00020960592384113407 0.0 -2.1212521006825996e-05 0.00021117199807443374 0.0 -1.711594955031519e-05 0.0002102086958483839 0.0 -1.6995257957691865e-05 0.0002125641489954915 0.0 -1.5708470929896793e-05 0.00021118544777384897 0.0 -1.6490956991073348e-05 0.0002116815271260646 0.0 -1.5660649209395277e-05 0.0002112614206160581 0.0 -1.5909807973032487e-05 0.00021100259288319906 0.0 -1.579195028647967e-05 0.000208524859082424 0.0 -1.6942892462605186e-05 0.0002078756940845794 0.0 -1.5524484481234688e-05 0.00020711399144080124 0.0 -1.533548017331973e-05 0.00020663770653749593 0.0 -1.6307721924427046e-05 0.00020356455682733721 0.0 -1.7732899925046703e-05 0.00019645100225966155 0.0 -1.780698901881576e-05 0.00019219932593188664 0.0 -1.8512872289000886e-05 0.0001899150105896151 0.0 -1.841526188032593e-05 0.00018637224753740417 0.0 -1.7247102913764617e-05 0.00018307627822834182 0.0 -1.9012799884244175e-05 0.00018017064332195563 0.0 -1.674064164993803e-05 0.0001751717740774768 0.0 -1.7433650594630233e-05 0.00017028867300323075 0.0 -6.065430481188772e-06 0.00011685716498799672 0.0 -1.1403587890156014e-05 0.00010531217016914842 0.0 -1.1518724373504238e-05 0.00011247558558075386 0.0 -1.1612040948782673e-05 0.0001068029273219371 0.0 -9.311089145209416e-06 0.00011229882461901814 0.0 -8.956526393855027e-06 0.00011109394795911118 0.0 -8.90315418351812e-06 0.00011480885161905757 0.0 -8.038285561974422e-06 0.00011508984198175082 0.0 -9.110632109407161e-06 0.00012163413585553057 0.0 -1.2310383243346244e-05 0.00011597609213311772 0.0 -1.3458171733352366e-05 0.0001176869809483152 0.0 -8.955223686794514e-06 0.00011769978729314368 0.0 -1.1447898063953744e-05 0.00012033278708785943 0.0 -8.444582790706716e-06 0.00012100236675121306 0.0 -1.0490773695361351e-05 0.00011926554507988556 0.0 -9.429527983772912e-06 0.00011924182453778296 0.0 -9.855321500671132e-06 0.00011984070707176047 0.0 -9.187975453695894e-06 0.0001162383031555687 0.0 -6.942262925568684e-06 0.00011673741681068222 0.0 -8.062943340878851e-06 0.00011691696396776694 0.0 -3.362762607039311e-06 0.00013612882242142402 0.0 -3.347411520594479e-06 0.00013574859198039102 0.0 -3.390902650097924e-06 0.000133122029305645 0.0 -4.696131877683493e-06 0.00013050680474959402 0.0 -5.0093539563925524e-06 0.00012986829373980353 0.0 -3.374932000481836e-06 0.00012895808339083117 0.0 -8.377888828220229e-06 0.00012364131062260445 0.0 -4.393746480985011e-06 0.00012451687559338355 0.0 -5.932891843487891e-06 0.00012188673309842336 0.0 -6.547208661418941e-06 0.00011853613941264475 0.0 -1.3793790136032317e-05 0.00011073195254937237 0.0 -1.5996030469973225e-05 0.00010710077269522021 0.0 -1.4462379881968696e-05 0.00010811946257878727 0.0 -1.3811267849769991e-05 0.00010847576045136978 0.0 -1.3436318431028024e-05 0.00010742900245277938 0.0 -1.2908731768015113e-05 0.0001090843145643183 0.0 -1.3036011491957961e-05 0.00010745465591394094 0.0 -1.1781004998085826e-05 0.0001131387552480053 0.0 -1.3247913690978371e-05 0.00010889678836138826 0.0 -9.952874367388828e-06 0.00011064144665274886 0.0 -1.3771521010525752e-05 0.00011419183503338055 0.0 -1.5778476939589775e-05 0.00010826987060058596 0.0 -1.4691748545456607e-05 0.00011300744042757578 0.0 -1.0852400070929886e-05 0.00010649476291998083 0.0 -1.2864046486192387e-05 0.00011031251698531438 0.0 -1.1477806895599826e-05 0.00010933062520082373 0.0 -1.2402080608068246e-05 0.0001104123925908866 0.0 -8.213759127381635e-06 0.00010787937900225211 0.0 -1.2205829571785034e-05 0.00011124059089312093 0.0 -1.2789092702324343e-05 0.00011008015838538853 0.0 -1.326452544773581e-05 0.00010899053343755692 0.0 -1.3357956172987187e-05 0.00011023788148617695 0.0 -1.4339982756645905e-05 0.00011161566781406691 0.0 -9.82195168318624e-06 0.00011130529269749682 0.0 -1.3145430529648604e-05 0.00011638220446888162 0.0 -9.134083424208923e-06 0.00010815010303335047 0.0 -1.0246727991345435e-05 0.0001111079665588872 0.0 -1.0358627509527374e-05 0.00010844602432667759 0.0 -1.2610024358158297e-05 0.00011253375551556056 0.0 -1.1906719821049911e-05 0.0001090388354073416 0.0 -1.3940541186994583e-05 0.00011287671668376884 0.0 -9.530463439129803e-06 0.00011154577982777593 0.0 -1.3184599346571389e-05 0.00011026631959441059 0.0 -1.0366010539042997e-05 0.00011252660235036266 0.0 -1.2374716956064372e-05 0.00011299276937431134 0.0 -1.457696452214378e-05 0.00011164043961413165 0.0 -1.083443885353633e-05 0.0001117554687131727 0.0 -8.046450814593174e-06 0.00011156257121355036 0.0 -1.3349277323290199e-05 0.00011221455353728467 0.0 -9.436478623140386e-06 0.00011264364973472242 0.0 -1.1909897276624483e-05 0.00011352952492706948 0.0 -9.679312129971238e-06 0.00011252293107399545 0.0 -1.0972137372789203e-05 0.00011347912962981826 0.0 -1.2088749505526297e-05 0.00011254872318422276 0.0 -1.2561050808835043e-05 0.00011452868225440987 0.0 -9.777136512960178e-06 0.00011476577308304877 0.0 -1.1094877562998388e-05 0.00011261587969126599 0.0 -1.21998518344859e-05 0.00011144640487161019 0.0 -1.266382690609354e-05 0.00011653351184440276 0.0 -1.2356316785883119e-05 0.00010924410766050724 0.0 -5.93304400754766e-06 0.00011447692674945767 0.0 -1.4787044909873229e-05 0.00010873438485697282 0.0 -9.606751984556566e-06 0.00011353439149078059 0.0 -9.573764004439885e-06 0.00011280061433667827 0.0 -9.941413424368594e-06 0.00011563814830661229 0.0 -1.1287777087957246e-05 0.00011413374399430394 0.0 -1.0186809113580542e-05 0.00011431485062370112 0.0 -1.2161739397979236e-05 0.00011456358042481255 0.0 -1.1040533542751573e-05 0.000116046638146181 0.0 -1.0531885788193775e-05 0.00011451584087718486 0.0 -1.1881669558357595e-05 0.00011670528380274431 0.0 -1.0539691162156911e-05 0.00010917836239290169 0.0 -1.2320314644887594e-05 0.00011506726330946888 0.0 -9.813999141469098e-06 0.00011096011678756289 0.0 -1.089127623703067e-05 0.00011684083473326885 0.0 -9.665752503209657e-06 0.0001146443163211542 0.0 -8.393688727613698e-06 0.00011740215840262957 0.0 -9.598518609459922e-06 0.00011700890121203161 0.0 -9.661637039665662e-06 0.00011721329131651215 0.0 -1.2110008610384552e-05 0.00012015911463897938 0.0 -9.500869635808137e-06 0.00011765804752955815 0.0 -9.510338525885274e-06 0.00011787736796413233 0.0 -9.946208922634605e-06 0.00011839818008048797 0.0 -1.3433885527065104e-05 0.00011905910844648241 0.0 -7.92695129145165e-06 0.00012208430998731282 0.0 -7.3076989853718995e-06 0.00011581279965508215 0.0 -1.2322842761149468e-05 0.0001195174061631329 0.0 -1.251615581640478e-05 0.00010463860152024936 0.0 -1.332856392840017e-05 0.0001172334017626059 0.0 -6.611133928512239e-06 0.0001150023226725598 0.0 -4.911399030475855e-06 0.00012151882263621133 0.0 -1.8967315167830853e-06 0.00012592732291235933 0.0 -4.448203393934201e-06 0.00012322249631949476 0.0 -3.0973806669947412e-06 0.00012719696797179502 0.0 -6.589078925232244e-06 0.00013278489371451862 0.0 -3.3767825810052082e-06 0.00012633215893042093 0.0 -4.6936810968889036e-07 0.00014177031012550223 0.0 -5.123933821050406e-06 0.0001370360743523343 0.0 -5.106497193845745e-06 0.0001