<?xml version="1.0" ?>
<VTKFile type="UnstructuredGrid" version="0.1" byte_order="LittleEndian">
<UnstructuredGrid>
<Piece NumberOfPoints="1500" NumberOfCells="1404">
<Points>
<DataArray type="Float32" format="ascii" NumberOfComponents="3">0.0149999997 0.0299999993 0.0 0.0149999997 0.0401869528 0.0 0.00973947905 0.0450999998 0.0 0.0 0.0450999998 0.0 0.0 0.0299999993 0.0 0.0149999997 0.0500130467 0.0 0.0149999997 0.0599999987 0.0 0.0 0.0599999987 0.0 0.0299999993 0.0299999993 0.0 0.0299999993 0.0450999998 0.0 0.0195885208 0.0450999998 0.0 0.0299999993 0.0599999987 0.0 0.0 0.0 0.0 0.0299999993 0.0 0.0 0.0299999993 0.0900000036 0.0 0.0 0.0900000036 0.0 0.00187499996 0.0299999993 0.0 0.00374999992 0.0299999993 0.0 0.00562500022 0.0299999993 0.0 0.00749999983 0.0299999993 0.0 0.00937500037 0.0299999993 0.0 0.0112500004 0.0299999993 0.0 0.0131249996 0.0299999993 0.0 0.0149999997 0.0309388097 0.0 0.0149999997 0.0315993913 0.0 0.0149999997 0.0322599746 0.0 0.0149999997 0.0329205543 0.0 0.0149999997 0.0335811377 0.0 0.0149999997 0.0342417173 0.0 0.0149999997 0.0349023007 0.0 0.0149999997 0.0355628803 0.0 0.0149999997 0.0362234637 0.0 0.0149999997 0.0368840471 0.0 0.0149999997 0.0375446267 0.0 0.0149999997 0.0382052101 0.0 0.0149999997 0.0388657898 0.0 0.0149999997 0.0395263731 0.0 0.0145518444 0.0401767567 0.0 0.0141046178 0.0402073525 0.0 0.0136620263 0.0402784906 0.0 0.0132277375 0.0403895788 0.0 0.0128053501 0.0405397005 0.0 0.012398364 0.0407276079 0.0 0.0120101506 0.0409517474 0.0 0.0116439275 0.0412102602 0.0 0.0113027301 0.0415010042 0.0 0.0109893847 0.0418215692 0.0 0.0107064871 0.042169299 0.0 0.0104563832 0.0425413139 0.0 0.0102411434 0.0429345332 0.0 0.010062553 0.0433456935 0.0 0.00992209092 0.0437713899 0.0 0.00982092042 0.0442080945 0.0 0.00975988153 0.0446521938 0.0 0.00910791382 0.0450999998 0.0 0.00847634859 0.0450999998 0.0 0.0078447843 0.0450999998 0.0 0.00721321953 0.0450999998 0.0 0.00658165431 0.0450999998 0.0 0.00595008954 0.0450999998 0.0 0.00531852478 0.0450999998 0.0 0.00468696002 0.0450999998 0.0 0.00405539526 0.0450999998 0.0 0.00342383026 0.0450999998 0.0 0.0027922655 0.0450999998 0.0 0.00216070074 0.0450999998 0.0 0.00152913586 0.0450999998 0.0 0.000897571037 0.0450999998 0.0 0.0 0.0438416675 0.0 0.0 0.0425833352 0.0 0.0 0.0413249992 0.0 0.0 0.0400666669 0.0 0.0 0.0388083346 0.0 0.0 0.0375499986 0.0 0.0 0.0362916663 0.0 0.0 0.035033334 0.0 0.0 0.0337750018 0.0 0.0 0.0325166658 0.0 0.0 0.0312583335 0.0 0.00975988153 0.0455478057 0.0 0.00982092042 0.045991905 0.0 0.00992209092 0.0464286096 0.0 0.010062553 0.046854306 0.0 0.0102411434 0.0472654663 0.0 0.0104563832 0.0476586856 0.0 0.0107064871 0.0480307005 0.0 0.0109893847 0.0483784303 0.0 0.0113027301 0.0486989953 0.0 0.0116439275 0.0489897393 0.0 0.0120101506 0.0492482521 0.0 0.012398364 0.0494723916 0.0 0.0128053501 0.049660299 0.0 0.0132277375 0.0498104207 0.0 0.0136620263 0.0499215089 0.0 0.0141046178 0.049992647 0.0 0.0145518444 0.0500232428 0.0 0.0149999997 0.0506606586 0.0 0.0149999997 0.0513082705 0.0 0.0149999997 0.0519558825 0.0 0.0149999997 0.0526034944 0.0 0.0149999997 0.05325111 0.0 0.0149999997 0.0538987219 0.0 0.0149999997 0.0545463338 0.0 0.0149999997 0.0551939458 0.0 0.0149999997 0.0558415577 0.0 0.0149999997 0.0564891733 0.0 0.0149999997 0.0571367852 0.0 0.0149999997 0.0577843972 0.0 0.0149999997 0.0584320091 0.0 0.0149999997 0.059079621 0.0 0.0131249996 0.0599999987 0.0 0.0112500004 0.0599999987 0.0 0.00937500037 0.0599999987 0.0 0.00749999983 0.0599999987 0.0 0.00562500022 0.0599999987 0.0 0.00374999992 0.0599999987 0.0 0.00187499996 0.0599999987 0.0 0.0 0.0587583333 0.0 0.0 0.057516668 0.0 0.0 0.0562749989 0.0 0.0 0.0550333336 0.0 0.0 0.0537916683 0.0 0.0 0.0525499992 0.0 0.0 0.0513083339 0.0 0.0 0.0500666648 0.0 0.0 0.0488249995 0.0 0.0 0.0475833341 0.0 0.0 0.0463416651 0.0 0.0195713751 0.0446894132 0.0 0.0195200555 0.0442816839 0.0 0.0194349196 0.0438796543 0.0 0.0193165597 0.0434861258 0.0 0.0191658027 0.0431038328 0.0 0.0189836938 0.0427354388 0.0 0.0187715068 0.0423835143 0.0 0.0185307153 0.0420505032 0.0 0.0182629973 0.0417387299 0.0 0.0179702155 0.0414503627 0.0 0.0176544115 0.041187413 0.0 0.0173177831 0.0409517065 0.0 0.0169626754 0.0407448858 0.0 0.0165915582 0.0405683964 0.0 0.0162070207 0.040423464 0.0 0.0158117376 0.0403110944 0.0 0.0154084601 0.0402320772 0.0 0.0168750007 0.0299999993 0.0 0.0187500007 0.0299999993 0.0 0.0206250008 0.0299999993 0.0 0.0225000009 0.0299999993 0.0 0.0243749991 0.0299999993 0.0 0.0262499992 0.0299999993 0.0 0.0281249993 0.0299999993 0.0 0.0299999993 0.0312583335 0.0 0.0299999993 0.0325166658 0.0 0.0299999993 0.0337750018 0.0 0.0299999993 0.035033334 0.0 0.0299999993 0.0362916663 0.0 0.0299999993 0.0375499986 0.0 0.0299999993 0.0388083346 0.0 0.0299999993 0.0400666669 0.0 0.0299999993 0.0413249992 0.0 0.0299999993 0.0425833352 0.0 0.0299999993 0.0438416675 0.0 0.0290404987 0.0450999998 0.0 0.0283653568 0.0450999998 0.0 0.0276902169 0.0450999998 0.0 0.0270150751 0.0450999998 0.0 0.0263399333 0.0450999998 0.0 0.0256647933 0.0450999998 0.0 0.0249896515 0.0450999998 0.0 0.0243145097 0.0450999998 0.0 0.0236393698 0.0450999998 0.0 0.0229642279 0.0450999998 0.0 0.0222890861 0.0450999998 0.0 0.0216139443 0.0450999998 0.0 0.0209388044 0.0450999998 0.0 0.0202636626 0.0450999998 0.0 0.0281249993 0.0599999987 0.0 0.0262499992 0.0599999987 0.0 0.0243749991 0.0599999987 0.0 0.0225000009 0.0599999987 0.0 0.0206250008 0.0599999987 0.0 0.0187500007 0.0599999987 0.0 0.0168750007 0.0599999987 0.0 0.0154084601 0.049967926 0.0 0.0158117376 0.0498889051 0.0 0.0162070207 0.0497765355 0.0 0.0165915582 0.0496316031 0.0 0.0169626754 0.0494551137 0.0 0.0173177831 0.049248293 0.0 0.0176544115 0.0490125902 0.0 0.0179702155 0.0487496369 0.0 0.0182629973 0.0484612696 0.0 0.0185307153 0.0481494963 0.0 0.0187715068 0.0478164889 0.0 0.0189836938 0.0474645607 0.0 0.0191658027 0.0470961705 0.0 0.0193165597 0.0467138775 0.0 0.0194349196 0.0463203453 0.0 0.0195200555 0.0459183156 0.0 0.0195713751 0.0455105864 0.0 0.0299999993 0.0463416651 0.0 0.0299999993 0.0475833341 0.0 0.0299999993 0.0488249995 0.0 0.0299999993 0.0500666648 0.0 0.0299999993 0.0513083339 0.0 0.0299999993 0.0525499992 0.0 0.0299999993 0.0537916683 0.0 0.0299999993 0.0550333336 0.0 0.0299999993 0.0562749989 0.0 0.0299999993 0.057516668 0.0 0.0299999993 0.0587583333 0.0 0.0 0.0270000007 0.0 0.0 0.0240000002 0.0 0.0 0.0209999997 0.0 0.0 0.0179999992 0.0 0.0 0.0149999997 0.0 0.0 0.0120000001 0.0 0.0 0.00899999961 0.0 0.0 0.00600000005 0.0 0.0 0.00300000003 0.0 0.00187499996 0.0 0.0 0.00374999992 0.0 0.0 0.00562500022 0.0 0.0 0.00749999983 0.0 0.0 0.00937500037 0.0 0.0 0.0112500004 0.0 0.0 0.0131249996 0.0 0.0 0.0149999997 0.0 0.0 0.0168750007 0.0 0.0 0.0187500007 0.0 0.0 0.0206250008 0.0 0.0 0.0225000009 0.0 0.0 0.0243749991 0.0 0.0 0.0262499992 0.0 0.0 0.0281249993 0.0 0.0 0.0299999993 0.00300000003 0.0 0.0299999993 0.00600000005 0.0 0.0299999993 0.00899999961 0.0 0.0299999993 0.0120000001 0.0 0.0299999993 0.0149999997 0.0 0.0299999993 0.0179999992 0.0 0.0299999993 0.0209999997 0.0 0.0299999993 0.0240000002 0.0 0.0299999993 0.0270000007 0.0 0.0299999993 0.063000001 0.0 0.0299999993 0.0659999996 0.0 0.0299999993 0.0689999983 0.0 0.0299999993 0.0719999969 0.0 0.0299999993 0.075000003 0.0 0.0299999993 0.0780000016 0.0 0.0299999993 0.0810000002 0.0 0.0299999993 0.0839999989 0.0 0.0299999993 0.0869999975 0.0 0.0281249993 0.0900000036 0.0 0.0262499992 0.0900000036 0.0 0.0243749991 0.0900000036 0.0 0.0225000009 0.0900000036 0.0 0.0206250008 0.0900000036 0.0 0.0187500007 0.0900000036 0.0 0.0168750007 0.0900000036 0.0 0.0149999997 0.0900000036 0.0 0.0131249996 0.0900000036 0.0 0.0112500004 0.0900000036 0.0 0.00937500037 0.0900000036 0.0 0.00749999983 0.0900000036 0.0 0.00562500022 0.0900000036 0.0 0.00374999992 0.0900000036 0.0 0.00187499996 0.0900000036 0.0 0.0 0.0869999975 0.0 0.0 0.0839999989 0.0 0.0 0.0810000002 0.0 0.0 0.0780000016 0.0 0.0 0.075000003 0.0 0.0 0.0719999969 0.0 0.0 0.0689999983 0.0 0.0 0.0659999996 0.0 0.0 0.063000001 0.0 0.00240605418 0.0317476094 0.0 0.0132285897 0.0308372527 0.0 0.0114639541 0.0308285281 0.0 0.00970989279 0.0308664478 0.0 0.00796741433 0.030946292 0.0 0.00622726884 0.0310834199 0.0 0.00444168784 0.0313186944 0.0 0.0115238708 0.0404538177 0.0 0.0110589247 0.0399643853 0.0 0.0105802957 0.0394543298 0.0 0.0100896806 0.0389274582 0.0 0.00958756451 0.0383866653 0.0 0.00907252356 0.0378334895 0.0 0.00854044221 0.0372676216 0.0 0.00798357651 0.0366861634 0.0 0.00738931261 0.0360825956 0.0 0.00673822826 0.0354451761 0.0 0.00600026548 0.0347540006 0.0 0.00512524834 0.0339741185 0.0 0.00401390065 0.0330347866 0.0 0.000793838175 0.0438955426 0.0 0.000772442494 0.0426918976 0.0 0.000783006602 0.0414899141 0.0 0.000811753387 0.0402907245 0.0 0.000856733182 0.0390956625 0.0 0.000921554572 0.037906155 0.0 0.00101479655 0.0367233306 0.0 0.00115271518 0.0355465077 0.0 0.00136729016 0.0343677737 0.0 0.00172855402 0.0331514254 0.0 0.0133339632 0.0315873995 0.0 0.0134397261 0.0323022977 0.0 0.0135442559 0.032998085 0.0 0.0136464294 0.0336812399 0.0 0.013745822 0.0343553573 0.0 0.013842525 0.0350228548 0.0 0.0139368745 0.0356853306 0.0 0.0140292263 0.0363436677 0.0 0.0141198216 0.0369979888 0.0 0.0142087657 0.0376475193 0.0 0.0142960874 0.0382902175 0.0 0.0143820234 0.0389216021 0.0 0.0144678745 0.0395311117 0.0 0.0116815548 0.0316202343 0.0 0.011899055 0.0323765688 0.0 0.0121123437 0.033103589 0.0 0.0123189483 0.0338073969 0.0 0.0125182495 0.0344934613 0.0 0.0127108386 0.0351662561 0.0 0.0128977867 0.0358290039 0.0 0.0130801173 0.0364835784 0.0 0.0132585336 0.0371304527 0.0 0.0134333326 0.0377685912 0.0 0.0136044715 0.0383952036 0.0 0.0137717454 0.0390052013 0.0 0.0139350798 0.0395906046 0.0 0.0100520272 0.0317044854 0.0 0.010392216 0.0325013697 0.0 0.0107216369 0.0332574546 0.0 0.01103618 0.0339790136 0.0 0.0113357538 0.0346737355 0.0 0.0116223767 0.0353484601 0.0 0.011898635 0.0360082686 0.0 0.0121667851 0.0366562307 0.0 0.0124283545 0.03
[...]
<PointData>
<DataArray Name="displ" NumberOfComponents="3" type="Float32" format="ascii">-3.954678497244811e-05 0.000565777820389182 0.0 -5.692118492122941e-05 0.0005785177168753523 0.0 1.9360657698916705e-05 0.0007484804731600603 0.0 2.6804341546656436e-06 0.0007170045341437085 0.0 -2.324643521918761e-05 0.0006039951196052941 0.0 -6.54503750987399e-05 0.0008791237361945503 0.0 -6.597450871431705e-05 0.0008927121718454755 0.0 -5.261058409220101e-05 0.0008330659029405473 0.0 -6.072306518623512e-05 0.0006308437484880131 0.0 -0.00011212889046419491 0.0007407575026889861 0.0 -0.0001903440038860134 0.0007045011800780937 0.0 -7.91220969190237e-05 0.0008496517405337407 0.0 -3.5858060071558464e-06 0.0004107095389140127 0.0 -3.263333613104678e-05 0.00042700474963359953 0.0 -9.483669669520305e-05 0.0010540659066932882 0.0 -5.9892024315522694e-05 0.0010405437680223552 0.0 -2.5512810081501258e-05 0.0006034980509549262 0.0 -2.8223110405629376e-05 0.000601312275764661 0.0 -3.0091136114639464e-05 0.0005984076999119371 0.0 -3.4504180566190764e-05 0.0005891044476468363 0.0 -3.6509253187600875e-05 0.0005810678732775584 0.0 -3.693333360165729e-05 0.0005693378669887499 0.0 -4.1197873053112266e-05 0.0005651842378142758 0.0 -4.14782928532338e-05 0.000568411682018293 0.0 -4.2020113409130754e-05 0.0005678571897716432 0.0 -4.3426751656400906e-05 0.0005716902603019575 0.0 -4.3778553344949105e-05 0.0005713518174489962 0.0 -4.349183107770486e-05 0.0005747703324087474 0.0 -4.738752909766053e-05 0.0005743075629336186 0.0 -4.5426007513755706e-05 0.0005753481241693088 0.0 -4.537733101647889e-05 0.0005746343838922643 0.0 -4.48591429747818e-05 0.0005751436572904406 0.0 -4.968721764515919e-05 0.0005705112445464363 0.0 -4.647569046393387e-05 0.0005772957036229288 0.0 -5.4988678583159576e-05 0.000574255697423644 0.0 -4.285569615433903e-05 0.0005714291599898 0.0 -5.474783798403746e-05 0.0005702301572094246 0.0 -3.3127521884128716e-05 0.0005707616366082091 0.0 -3.993710428356128e-05 0.000578998953321149 0.0 -2.9445077846033507e-05 0.000573722609255851 0.0 -3.488332191414876e-05 0.0005776193232773329 0.0 -2.0921807022011153e-05 0.0005746337108685348 0.0 -3.035144860153122e-05 0.0005945692957755087 0.0 -1.2129871319679793e-05 0.0005777461834614567 0.0 -6.33786271335446e-06 0.0005814070913423482 0.0 -9.113972187573348e-06 0.0006033756344202293 0.0 -9.828271263039426e-07 0.0006048701757193376 0.0 -8.105659074282185e-06 0.0006165820517327536 0.0 -8.236230415172971e-07 0.0006257003511702975 0.0 -1.34160301272518e-05 0.0006376206332773404 0.0 2.153410000342615e-06 0.0006024968274789562 0.0 9.315982834579853e-06 0.0005989176001693417 0.0 -9.734673372136519e-06 0.0006953393470096607 0.0 -2.785286867885699e-06 0.0007062489819370646 0.0 -2.1554330530423324e-05 0.0007202970050955745 0.0 -1.0266857165677472e-06 0.000725250243334473 0.0 -9.625498022006166e-06 0.000722282776841377 0.0 1.5502556821574244e-06 0.0007192199073031384 0.0 -4.8417041466822666e-06 0.0007263787658996799 0.0 -5.175830171732033e-06 0.0007166243966081951 0.0 -1.1139830670007215e-05 0.0007242271283332668 0.0 -2.824902301658161e-06 0.0007152176277042686 0.0 -2.2059592773593373e-06 0.000721486485039333 0.0 -3.1886024213116823e-06 0.0007147975795031141 0.0 7.528812909989328e-07 0.0007182750193676923 0.0 -6.722439516996278e-07 0.000715857156505972 0.0 1.062057004562608e-06 0.0007196281908406996 0.0 -2.8749209256234016e-06 0.0007145736234883068 0.0 -6.108721835696858e-07 0.0007078719972494153 0.0 -2.5828616298398267e-06 0.0007066345481342875 0.0 -4.186784438673501e-06 0.0006950376730941783 0.0 -8.17656977354675e-06 0.0006842430905392814 0.0 -1.5053932641986121e-05 0.0006775652460868068 0.0 -1.9271760791025195e-05 0.000666484855423688 0.0 -2.124147279248378e-05 0.0006530087918540302 0.0 -2.4493899105927606e-05 0.0006449294332802209 0.0 -2.0832540849270615e-05 0.0006331796772339492 0.0 -2.3850810462273248e-05 0.0006264897319284155 0.0 -2.4095738579971087e-05 0.0006124476349275228 0.0 2.174168900144009e-05 0.0008245730551465499 0.0 4.597789575946663e-06 0.0008331858545776463 0.0 1.7111598623250883e-05 0.0008046999191050108 0.0 5.649438962493134e-06 0.000855096921271936 0.0 1.0082545001858433e-05 0.0008379059066590148 0.0 -6.848056964257409e-06 0.0008249957723319461 0.0 -1.7233614443458125e-05 0.0008329776393255865 0.0 -1.3492947410302214e-05 0.0008500747825667614 0.0 -2.1666877097462472e-05 0.0008492361965242774 0.0 -3.3555153971341685e-05 0.0008529331061927007 0.0 -2.9141603425926994e-05 0.0008578034664672295 0.0 -3.5598834298520515e-05 0.0008631159699619158 0.0 -4.125049917968912e-05 0.000867276008943628 0.0 -5.023368188039974e-05 0.0008758319364767889 0.0 -4.806255931553679e-05 0.0008795983822965734 0.0 -5.69071769208781e-05 0.0008764292603343803 0.0 -5.9750978083705345e-05 0.000878077041984858 0.0 -6.371485591624294e-05 0.0008754746098148358 0.0 -6.238289045417933e-05 0.0008778096917936632 0.0 -5.982863530502226e-05 0.0008798012867071556 0.0 -6.0241481319401634e-05 0.0008763645100846012 0.0 -6.37663085073433e-05 0.0008790310348621745 0.0 -6.392275128310181e-05 0.0008743225448488861 0.0 -6.496153532853758e-05 0.0008769329646447259 0.0 -6.202505342877019e-05 0.0008809516809928594 0.0 -6.649148271082842e-05 0.0008754211020118864 0.0 -6.147840627293346e-05 0.0008853957106535609 0.0 -6.695401767021945e-05 0.0008865338250550428 0.0 -6.564928686054475e-05 0.0008830526385611795 0.0 -6.489951063539893e-05 0.0008860851078071475 0.0 -6.714558933006464e-05 0.0008895160697563031 0.0 -6.427529990384498e-05 0.0008900675290540304 0.0 -6.444022087606997e-05 0.0008843030129796343 0.0 -6.569968572817405e-05 0.0008715814206159674 0.0 -6.109913681259385e-05 0.0008580179618526102 0.0 -5.885317706194331e-05 0.0008482593667567115 0.0 -5.677522986603514e-05 0.0008416871902289385 0.0 -5.327583149555834e-05 0.0008361522360707627 0.0 -5.1847943111781494e-05 0.0008217837017813149 0.0 -4.837413619445018e-05 0.0008151222768543688 0.0 -4.6287594544002144e-05 0.000801746650151707 0.0 -4.658008370812119e-05 0.0007935653128345882 0.0 -3.9211494894039426e-05 0.0007804453294636571 0.0 -3.297258410054307e-05 0.0007702168467341099 0.0 -3.237659227141501e-05 0.0007561018156407068 0.0 -1.8334000196633414e-05 0.0007469658885438679 0.0 -1.058732760866017e-05 0.0007383479294319056 0.0 -6.101681968504212e-06 0.0007319957831058932 0.0 -5.0084138481111e-06 0.0007257344089120429 0.0 -0.00010757163957701456 0.0007467243128552527 0.0 -0.00011275942535687218 0.0007322928341831578 0.0 -0.00012600441470914434 0.0006549377865635704 0.0 -9.183059903864044e-05 0.0006760011920857806 0.0 -9.752199147234356e-05 0.0006364470718747822 0.0 -0.00011066452652567829 0.000627818851152369 0.0 -0.00010508835334053976 0.0006088198615874976 0.0 -9.217694000002395e-05 0.000628882052819918 0.0 -9.750552379385524e-05 0.0005959889677661372 0.0 -8.66782997798637e-05 0.0006059471332957475 0.0 -7.810353173246284e-05 0.0006051616359363986 0.0 -8.11514409189609e-05 0.0005920310327071924 0.0 -7.701370839419425e-05 0.0005812379090235088 0.0 -7.253340216122699e-05 0.000585084890025762 0.0 -6.139080291435982e-05 0.0005802474622754022 0.0 -6.191107084351681e-05 0.000580739083316959 0.0 -4.944592121704669e-05 0.0005700811542845763 0.0 -4.219401642611253e-05 0.0005713749151207678 0.0 -4.364416244456374e-05 0.0005806782393017885 0.0 -4.570688031137995e-05 0.0005964151713851515 0.0 -4.7972899162188303e-05 0.0006098972211472198 0.0 -5.1684815870286676e-05 0.0006179274993791998 0.0 -5.394323898192787e-05 0.0006243401909166578 0.0 -5.7806575624974656e-05 0.0006289727854951037 0.0 -6.336215670219535e-05 0.0006403144228540924 0.0 -6.723741998359352e-05 0.0006529597651849021 0.0 -6.639819378449305e-05 0.0006496188177973925 0.0 -7.326241393322895e-05 0.0006693990256893321 0.0 -7.78337465910884e-05 0.0006771708100850914 0.0 -7.877348514184346e-05 0.0006914267764561258 0.0 -8.410214258208873e-05 0.0007058092485926228 0.0 -9.190514715838301e-05 0.0007148807599862224 0.0 -9.656409253823104e-05 0.0007167111216702738 0.0 -0.00010411269076885358 0.0007167873181792237 0.0 -0.00010826520502069918 0.0007272963972410787 0.0 -0.00010777482468069349 0.0007388475273243018 0.0 -0.0001043234807951968 0.0007387769322123295 0.0 -0.0001076968270017255 0.0007352072042815049 0.0 -0.00010232101916812649 0.0007325301926791724 0.0 -0.00011014494373529778 0.0007391889844579761 0.0 -0.00010601267597685026 0.0007314697481447749 0.0 -0.00010392117223074946 0.0007347030100589947 0.0 -9.995963478966389e-05 0.0007330976783307149 0.0 -0.00010078665461513613 0.0007302542521234336 0.0 -9.921721048921518e-05 0.0007319431371008756 0.0 -0.00010379481876611212 0.0007319015085604938 0.0 -0.00010221891441197598 0.0007344060444220622 0.0 -0.0001016178041919766 0.0007314173702219967 0.0 -8.066431301585461e-05 0.0007293885790931492 0.0 -7.735087609703689e-05 0.0008494026253649455 0.0 -7.415958144552215e-05 0.0008517747672764386 0.0 -7.32932029990728e-05 0.0008545315647818247 0.0 -7.167838936305673e-05 0.0008592425814989785 0.0 -6.881675387275137e-05 0.0008686022114039818 0.0 -6.722990586255386e-05 0.0008788649239439548 0.0 -6.761577623689931e-05 0.0008877013026740684 0.0 -5.881960342940097e-05 0.000879034891739468 0.0 -6.410833556671968e-05 0.0008691201287742434 0.0 -6.911892313824099e-05 0.0008742967755672681 0.0 -7.259863201314284e-05 0.0008631817130405698 0.0 -8.070186724673924e-05 0.0008706443668142893 0.0 -8.748411395338861e-05 0.0008576940715672086 0.0 -8.464829054646573e-05 0.0008592826397046195 0.0 -9.480606826734859e-05 0.000836553748825277 0.0 -9.548296737861815e-05 0.0008494169801761143 0.0 -9.442052560794587e-05 0.0008380580723212431 0.0 -0.000100022181439727 0.0008400004852993024 0.0 -9.477067154515818e-05 0.0008143864409808 0.0 -9.572461078141201e-05 0.000814799617499398 0.0 -0.00012064159181721283 0.0008052334379348688 0.0 -0.00010829328896385739 0.0007644497526655559 0.0 -9.022708879314715e-05 0.0007700251903782371 0.0 -9.604024408681221e-05 0.000730975247468308 0.0 -0.00010697675987011674 0.0007453929735446099 0.0 -0.00010733450464394123 0.0007560075426897734 0.0 -0.00010455094324925987 0.000755667632814423 0.0 -9.725351715812828e-05 0.0007817979018846291 0.0 -9.303972368304024e-05 0.0007742512834394037 0.0 -8.709753943697897e-05 0.0007899037666377146 0.0 -8.181011150125421e-05 0.0007973873836092456 0.0 -8.27620272579812e-05 0.0008191538352852284 0.0 -8.293189808201584e-05 0.0008192835475464141 0.0 -7.815220899976283e-05 0.0008332862351738573 0.0 -7.965593228477567e-05 0.000840525172201386 0.0 -2.030699348242169e-05 0.0005791353882628979 0.0 -2.0025763905034612e-05 0.0005575677838833164 0.0 -1.845609136379612e-05 0.0005366417549853603 0.0 -1.6818795378404348e-05 0.00051446377048249 0.0 -1.2324787045743798e-05 0.0004966185894657318 0.0 -9.03257875100145e-06 0.000477553726068944 0.0 -8.094590265841781e-06 0.00045978628556136487 0.0 -6.80201933981558e-06 0.00044430254984913843 0.0 -2.4461840681760564e-06 0.0004269588905739582 0.0 -3.291273447671564e-06 0.00041393816139709993 0.0 -6.71711875169396e-06 0.00041449098327143974 0.0 -7.561176963054717e-06 0.00041673602174145707 0.0 -9.598413803636378e-06 0.0004140739208911542 0.0 -1.1469352576626682e-05 0.00041510045565584114 0.0 -1.1620361752729674e-05 0.0004152326559053647 0.0 -1.611560963562543e-05 0.00041487470304247485 0.0 -1.829413882743394e-05 0.00041509313288829147 0.0 -1.746493393094772e-05 0.0004169490228801024 0.0 -2.2052594071039115e-05 0.0004187984379352936 0.0 -2.4428572205820846e-05 0.000422186411545286 0.0 -2.7023543020994227e-05 0.00042460387897096645 0.0 -2.829076797144973e-05 0.00042549468736685517 0.0 -2.9355104813411062e-05 0.00042801412147384606 0.0 -3.150131411869572e-05 0.0004284123499119782 0.0 -3.207039646554041e-05 0.00044840901813991815 0.0 -3.500443425611784e-05 0.0004678220545052285 0.0 -4.056372073046765e-05 0.0004869325306239688 0.0 -4.321360415572246e-05 0.0005069101244965723 0.0 -4.7272271953638974e-05 0.0005264333381466308 0.0 -4.839925947660173e-05 0.0005459996220336443 0.0 -4.811915280620089e-05 0.0005662406101774314 0.0 -4.944268191003587e-05 0.0005880682588029179 0.0 -5.245216200270047e-05 0.0006095861477237649 0.0 -7.790964280726266e-05 0.0008747923101326482 0.0 -7.974761236880668e-05 0.0008975866261458513 0.0 -8.006547453357736e-05 0.0009156726538077724 0.0 -8.26325847683464e-05 0.000940789895153392 0.0 -8.2913929152346e-05 0.0009587633674585876 0.0 -8.639007529861555e-05 0.0009729378155939963 0.0 -8.688672256038821e-05 0.0009915287394287819 0.0 -9.121242128956738e-05 0.0010174365779323164 0.0 -9.469756834191606e-05 0.0010295462307960631 0.0 -9.379494086047416e-05 0.0010514770854064756 0.0 -9.196147660952608e-05 0.0010509911078350224 0.0 -9.044103809425285e-05 0.00104894282283693 0.0 -8.731393499337737e-05 0.0010505206341507054 0.0 -8.772007260578435e-05 0.0010491186310569729 0.0 -8.107442561015736e-05 0.0010482592601701438 0.0 -8.22894697457114e-05 0.0010492599350014104 0.0 -7.874676122067433e-05 0.0010473659014710432 0.0 -7.34435621811183e-05 0.0010493892875682472 0.0 -7.28475066240951e-05 0.0010483079054448613 0.0 -6.944699880979567e-05 0.0010481985760596917 0.0 -6.574243853383367e-05 0.0010473145360471424 0.0 -6.586855276910687e-05 0.0010452399448142515 0.0 -6.278985356488984e-05 0.0010440863619279547 0.0 -6.102452172189332e-05 0.001041827281654055 0.0 -5.895849982149428e-05 0.001024806993059852 0.0 -6.117475159037942e-05 0.0010000736896431538 0.0 -6.109992887847172e-05 0.0009846795709311576 0.0 -5.9717113083812616e-05 0.0009653338028372022 0.0 -5.8457419308632025e-05 0.0009464196223614175 0.0 -5.6290795667808093e-05 0.0009237168548336084 0.0 -5.7602752092072114e-05 0.0008992338815014909 0.0 -5.440266164892124e-05 0.0008748334708174104 0.0 -5.4835424215201696e-05 0.0008539127335023141 0.0 -2.6160910344150807e-05 0.000617147767593192 0.0 -3.87698594987656e-05 0.0005675736023153341 0.0 -3.837305166541301e-05 0.0005735090289223759 0.0 -3.730897254746938e-05 0.0005818301080704611 0.0 -3.351314935287646e-05 0.0005935225808769096 0.0 -3.293844529659294e-05 0.0006027007576278867 0.0 -3.025211336881671e-05 0.0006081385921087172 0.0 -3.1137568821691453e-05 0.0005920630441887227 0.0 -2.7090960349679418e-05 0.0005981689281887079 0.0 -3.347802556533208e-05 0.0006087444601022183 0.0 -3.82911565880012e-05 0.0006130521345653679 0.0 -3.435790407993086e-05 0.0006252929219159461 0.0 -3.637830518650361e-05 0.0006305098247200774 0.0 -3.322880570938878e-05 0.0006327660256564497 0.0 -3.26548783165341e-05 0.0006304302697120598 0.0 -3.598025614827996e-05 0.0006335075278514195 0.0 -3.196475334017812e-05 0.0006319594469541119 0.0 -3.268351865630282e-05 0.0006313642543771159 0.0 -3.134084101628334e-05 0.0006244037687780469 0.0 -3.0334723933694337e-05 0.0006221557311659322 0.0 3.7592985976614167e-06 0.0007109049578640758 0.0 -2.9803594501977965e-06 0.0006980644435795705 0.0 -2.4492032286528244e-06 0.0006947618626682007 0.0 -6.490388471280651e-06 0.0006843867931384726 0.0 -1.1891922849186832e-05 0.0006723767293350251 0.0 -1.617666128302652e-05 0.0006681700168900514 0.0 -2.135073409236254e-05 0.0006553445193283559 0.0 -1.953553932043768e-05 0.0006490347557796043 0.0 -2.5590705969983235e-05 0.0006376897516073346 0.0 -2.6380698410627726e-05 0.0006278394564329668 0.0 -4.144153618922814e-05 0.0005713590749405132 0.0 -4.0586709433436083e-05 0.0005694360168778487 0.0 -4.5173815336045704e-05 0.0005731687263087165 0.0 -4.225254138552401e-05 0.0005725193275511057 0.0 -4.2904295869431515e-05 0.000574546422640302 0.0 -4.375352036667268e-05 0.000576321104747214 0.0 -4.619238858992701e-05 0.0005729385528115622 0.0 -4.202754577877676e-05 0.0005750124328069829 0.0 -4.867418583460168e-05 0.0005778048002052389 0.0 -4.2750467060419416e-05 0.0005708489682034571 0.0 -4.9310680855429416e-05 0.0005783527181074888 0.0 -5.089650978257323e-05 0.0005741398362806402 0.0 -4.730204226479294e-05 0.0005772544259177007 0.0 -4.023269440512438e-05 0.0005733372083632337 0.0 -4.2352299076385636e-05 0.0005759055187907795 0.0 -3.9923624009631114e-05 0.0005768054388058909 0.0 -4.131193263484848e-05 0.0005777125764149196 0.0 -4.1516629523336095e-05 0.0005774977854399341 0.0 -4.005965536831663e-05 0.0005763746946510613 0.0 -4.62375295200007e-05 0.0005798755936687942 0.0 -4.528641672067384e-05 0.0005814969957048002 0.0 -4.5256601351157836e-05 0.0005745987062973324 0.0 -4.453867916006772e-05 0.00057677845122905 0.0 -4.272821262676094e-05 0.0005736271233024958 0.0 -4.324430659975411e-05 0.0005812038912169557 0.0 -4.625045436630401e-05 0.0005773973034283582 0.0 -3.785162989861949e-05 0.0005849967612759643 0.0 -3.910145296756506e-05 0.000584501539925275 0.0 -4.011605985506599e-05 0.0005856095107815696 0.0 -4.0205859454966335e-05 0.0005852299504348833 0.0 -4.2960240791603686e-05 0.0005855546391107956 0.0 -4.104084264729456e-05 0.0005837482381190757 0.0 -4.170018726522875e-05 0.000579845564602608 0.0 -4.374839238207768e-05 0.0005830955942849382 0.0 -4.549472422865343e-05 0.0005822521399719781 0.0 -4.517169244117968e-05 0.0005810325652457161 0.0 -4.121214286426041e-05 0.0005748195252240917 0.0 -3.8045033919663e-05 0.0005769132651660248 0.0 -4.457784446904811e-05 0.0005755736601807796 0.0 -3.6485458430866395e-05 0.0005984408646594845 0.0 -3.787812153788887e-05 0.0005975726935221504 0.0 -3.623624438105516e-05 0.0005983644978431355 0.0 -3.821301719099166e-05 0.0006010322999663208 0.0 -4.021196477619317e-05 0.0005948650878411655 0.0 -4.2785009206581763e-05 0.0005976505872440484 0.0 -4.198021535055705e-05 0.0005945369141192772 0.0 -3.784904441797309e-05 0.000589129475864151 0.0 -4.145601851791678e-05 0.0005875381107802873 0.0 -4.233338462856078e-05 0.0005868107545076162 0.0 -4.0052396684700945e-05 0.0005794966483688036 0.0 -3.9162449462037666e-05 0.0005817475682102751 0.0 -3.4633699300111536e-05 0.000576891892565301 0.0 -3.487836016247895e-05 0.0006076894253438619 0.0 -3.403726023275212e-05 0.0006097121349595478 0.0 -3.569029610521221e-05 0.0006117718450524865 0.0 -3.800650376285506e-05 0.0006135020033892358 0.0 -3.6604607750935465e-05 0.0006105269733019781 0.0 -4.040561778650133e-05 0.0006093587912923832 0.0 -4.1217628575972185e-05 0.0006062095428379127 0.0 -3.82527460442867e-05 0.0006000809173705304 0.0 -3.9990064413406366e-05 0.0006011251469743515 0.0 -3.815107459302661e-05 0.000593241051857858 0.0 -4.5467713663657694e-05 0.0005951378556184885 0.0 -3.6109648401988733e-05 0.0005822276912171863 0.0 -4.3241943947854264e-05 0.0005844614060095161 0.0 -3.1857735120141656e-05 0.0006161214199607631 0.0 -3.170041676925217e-05 0.0006206219445715066 0.0 -3.406777189079727e-05 0.0006234916801813288 0.0 -3.541046355313811e-05 0.0006230971964435967 0.0 -3.710475202567293e-05 0.0006253575293980238 0.0 -3.4921815442924956e-05 0.0006242271276913928 0.0 -3.604683258747215e-05 0.0006202061484905375 0.0 -3.9459006543245346e-05 0.000616685746521212 0.0 -3.905252441483332e-05 0.0006099927100320341 0.0 -3.5663747003173186e-05 0.0006060226226658606 0.0 -3.614523533646558e-05 0.0005934981325030399 0.0 -3.7416118409040896e-05 0.0005942333616522502 0.0 -2.7386370166203782e-05 0.0005781239240686217 0.0 -2.5447366225594283e-05 0.0006047149680087268 0.0 -1.998242126925179e-05 0.0005994916774324563 0.0 -1.2085076222623525e-05 0.0006162035227192917 0.0 -9.720563564694506e-06 0.0006200513758309995 0.0 -5.600771502751079e-06 0.0006288971716097533 0.0 -2.8506167237725784e-06 0.0006391839008867943 0.0 -1.20453985862979e-05 0.0006848469025584288 0.0 -8.830145374385232e-06 0.000693558489120896 0.0 -4.703456704827265e-06 0.0007064471935292336 0.0 -1.3381808950527737e-05 0.0007143178107213966 0.0 -2.5285521471789086e-05 0.0006089804099474076 0.0 -2.5919389462223905e-05 0.000622446392231071 0.0 -1.3996981436678684e-05 0.0006291775055651951 0.0 -2.4323413841199615e-05 0.0006475643795729938 0.0 -5.7427679956982325e-06 0.0006645637134049626 0.0 -1.8396839938200343e-05 0.000681529143141953 0.0 -5.951693334880704e-06 0.0006863623238419253 0.0 -5.122435717251372e-06 0.0006979353900551992 0.0 -1.2791458620911926e-05 0.0007131498845784951 0.0 -5.29808366348115