<?xml version="1.0" ?>
<VTKFile type="UnstructuredGrid" version="0.1" byte_order="LittleEndian">
<UnstructuredGrid>
<Piece NumberOfPoints="1500" NumberOfCells="1404">
<Points>
<DataArray type="Float32" format="ascii" NumberOfComponents="3">0.0149999997 0.0299999993 0.0 0.0149999997 0.0401869528 0.0 0.00973947905 0.0450999998 0.0 0.0 0.0450999998 0.0 0.0 0.0299999993 0.0 0.0149999997 0.0500130467 0.0 0.0149999997 0.0599999987 0.0 0.0 0.0599999987 0.0 0.0299999993 0.0299999993 0.0 0.0299999993 0.0450999998 0.0 0.0195885208 0.0450999998 0.0 0.0299999993 0.0599999987 0.0 0.0 0.0 0.0 0.0299999993 0.0 0.0 0.0299999993 0.0900000036 0.0 0.0 0.0900000036 0.0 0.00187499996 0.0299999993 0.0 0.00374999992 0.0299999993 0.0 0.00562500022 0.0299999993 0.0 0.00749999983 0.0299999993 0.0 0.00937500037 0.0299999993 0.0 0.0112500004 0.0299999993 0.0 0.0131249996 0.0299999993 0.0 0.0149999997 0.0309388097 0.0 0.0149999997 0.0315993913 0.0 0.0149999997 0.0322599746 0.0 0.0149999997 0.0329205543 0.0 0.0149999997 0.0335811377 0.0 0.0149999997 0.0342417173 0.0 0.0149999997 0.0349023007 0.0 0.0149999997 0.0355628803 0.0 0.0149999997 0.0362234637 0.0 0.0149999997 0.0368840471 0.0 0.0149999997 0.0375446267 0.0 0.0149999997 0.0382052101 0.0 0.0149999997 0.0388657898 0.0 0.0149999997 0.0395263731 0.0 0.0145518444 0.0401767567 0.0 0.0141046178 0.0402073525 0.0 0.0136620263 0.0402784906 0.0 0.0132277375 0.0403895788 0.0 0.0128053501 0.0405397005 0.0 0.012398364 0.0407276079 0.0 0.0120101506 0.0409517474 0.0 0.0116439275 0.0412102602 0.0 0.0113027301 0.0415010042 0.0 0.0109893847 0.0418215692 0.0 0.0107064871 0.042169299 0.0 0.0104563832 0.0425413139 0.0 0.0102411434 0.0429345332 0.0 0.010062553 0.0433456935 0.0 0.00992209092 0.0437713899 0.0 0.00982092042 0.0442080945 0.0 0.00975988153 0.0446521938 0.0 0.00910791382 0.0450999998 0.0 0.00847634859 0.0450999998 0.0 0.0078447843 0.0450999998 0.0 0.00721321953 0.0450999998 0.0 0.00658165431 0.0450999998 0.0 0.00595008954 0.0450999998 0.0 0.00531852478 0.0450999998 0.0 0.00468696002 0.0450999998 0.0 0.00405539526 0.0450999998 0.0 0.00342383026 0.0450999998 0.0 0.0027922655 0.0450999998 0.0 0.00216070074 0.0450999998 0.0 0.00152913586 0.0450999998 0.0 0.000897571037 0.0450999998 0.0 0.0 0.0438416675 0.0 0.0 0.0425833352 0.0 0.0 0.0413249992 0.0 0.0 0.0400666669 0.0 0.0 0.0388083346 0.0 0.0 0.0375499986 0.0 0.0 0.0362916663 0.0 0.0 0.035033334 0.0 0.0 0.0337750018 0.0 0.0 0.0325166658 0.0 0.0 0.0312583335 0.0 0.00975988153 0.0455478057 0.0 0.00982092042 0.045991905 0.0 0.00992209092 0.0464286096 0.0 0.010062553 0.046854306 0.0 0.0102411434 0.0472654663 0.0 0.0104563832 0.0476586856 0.0 0.0107064871 0.0480307005 0.0 0.0109893847 0.0483784303 0.0 0.0113027301 0.0486989953 0.0 0.0116439275 0.0489897393 0.0 0.0120101506 0.0492482521 0.0 0.012398364 0.0494723916 0.0 0.0128053501 0.049660299 0.0 0.0132277375 0.0498104207 0.0 0.0136620263 0.0499215089 0.0 0.0141046178 0.049992647 0.0 0.0145518444 0.0500232428 0.0 0.0149999997 0.0506606586 0.0 0.0149999997 0.0513082705 0.0 0.0149999997 0.0519558825 0.0 0.0149999997 0.0526034944 0.0 0.0149999997 0.05325111 0.0 0.0149999997 0.0538987219 0.0 0.0149999997 0.0545463338 0.0 0.0149999997 0.0551939458 0.0 0.0149999997 0.0558415577 0.0 0.0149999997 0.0564891733 0.0 0.0149999997 0.0571367852 0.0 0.0149999997 0.0577843972 0.0 0.0149999997 0.0584320091 0.0 0.0149999997 0.059079621 0.0 0.0131249996 0.0599999987 0.0 0.0112500004 0.0599999987 0.0 0.00937500037 0.0599999987 0.0 0.00749999983 0.0599999987 0.0 0.00562500022 0.0599999987 0.0 0.00374999992 0.0599999987 0.0 0.00187499996 0.0599999987 0.0 0.0 0.0587583333 0.0 0.0 0.057516668 0.0 0.0 0.0562749989 0.0 0.0 0.0550333336 0.0 0.0 0.0537916683 0.0 0.0 0.0525499992 0.0 0.0 0.0513083339 0.0 0.0 0.0500666648 0.0 0.0 0.0488249995 0.0 0.0 0.0475833341 0.0 0.0 0.0463416651 0.0 0.0195713751 0.0446894132 0.0 0.0195200555 0.0442816839 0.0 0.0194349196 0.0438796543 0.0 0.0193165597 0.0434861258 0.0 0.0191658027 0.0431038328 0.0 0.0189836938 0.0427354388 0.0 0.0187715068 0.0423835143 0.0 0.0185307153 0.0420505032 0.0 0.0182629973 0.0417387299 0.0 0.0179702155 0.0414503627 0.0 0.0176544115 0.041187413 0.0 0.0173177831 0.0409517065 0.0 0.0169626754 0.0407448858 0.0 0.0165915582 0.0405683964 0.0 0.0162070207 0.040423464 0.0 0.0158117376 0.0403110944 0.0 0.0154084601 0.0402320772 0.0 0.0168750007 0.0299999993 0.0 0.0187500007 0.0299999993 0.0 0.0206250008 0.0299999993 0.0 0.0225000009 0.0299999993 0.0 0.0243749991 0.0299999993 0.0 0.0262499992 0.0299999993 0.0 0.0281249993 0.0299999993 0.0 0.0299999993 0.0312583335 0.0 0.0299999993 0.0325166658 0.0 0.0299999993 0.0337750018 0.0 0.0299999993 0.035033334 0.0 0.0299999993 0.0362916663 0.0 0.0299999993 0.0375499986 0.0 0.0299999993 0.0388083346 0.0 0.0299999993 0.0400666669 0.0 0.0299999993 0.0413249992 0.0 0.0299999993 0.0425833352 0.0 0.0299999993 0.0438416675 0.0 0.0290404987 0.0450999998 0.0 0.0283653568 0.0450999998 0.0 0.0276902169 0.0450999998 0.0 0.0270150751 0.0450999998 0.0 0.0263399333 0.0450999998 0.0 0.0256647933 0.0450999998 0.0 0.0249896515 0.0450999998 0.0 0.0243145097 0.0450999998 0.0 0.0236393698 0.0450999998 0.0 0.0229642279 0.0450999998 0.0 0.0222890861 0.0450999998 0.0 0.0216139443 0.0450999998 0.0 0.0209388044 0.0450999998 0.0 0.0202636626 0.0450999998 0.0 0.0281249993 0.0599999987 0.0 0.0262499992 0.0599999987 0.0 0.0243749991 0.0599999987 0.0 0.0225000009 0.0599999987 0.0 0.0206250008 0.0599999987 0.0 0.0187500007 0.0599999987 0.0 0.0168750007 0.0599999987 0.0 0.0154084601 0.049967926 0.0 0.0158117376 0.0498889051 0.0 0.0162070207 0.0497765355 0.0 0.0165915582 0.0496316031 0.0 0.0169626754 0.0494551137 0.0 0.0173177831 0.049248293 0.0 0.0176544115 0.0490125902 0.0 0.0179702155 0.0487496369 0.0 0.0182629973 0.0484612696 0.0 0.0185307153 0.0481494963 0.0 0.0187715068 0.0478164889 0.0 0.0189836938 0.0474645607 0.0 0.0191658027 0.0470961705 0.0 0.0193165597 0.0467138775 0.0 0.0194349196 0.0463203453 0.0 0.0195200555 0.0459183156 0.0 0.0195713751 0.0455105864 0.0 0.0299999993 0.0463416651 0.0 0.0299999993 0.0475833341 0.0 0.0299999993 0.0488249995 0.0 0.0299999993 0.0500666648 0.0 0.0299999993 0.0513083339 0.0 0.0299999993 0.0525499992 0.0 0.0299999993 0.0537916683 0.0 0.0299999993 0.0550333336 0.0 0.0299999993 0.0562749989 0.0 0.0299999993 0.057516668 0.0 0.0299999993 0.0587583333 0.0 0.0 0.0270000007 0.0 0.0 0.0240000002 0.0 0.0 0.0209999997 0.0 0.0 0.0179999992 0.0 0.0 0.0149999997 0.0 0.0 0.0120000001 0.0 0.0 0.00899999961 0.0 0.0 0.00600000005 0.0 0.0 0.00300000003 0.0 0.00187499996 0.0 0.0 0.00374999992 0.0 0.0 0.00562500022 0.0 0.0 0.00749999983 0.0 0.0 0.00937500037 0.0 0.0 0.0112500004 0.0 0.0 0.0131249996 0.0 0.0 0.0149999997 0.0 0.0 0.0168750007 0.0 0.0 0.0187500007 0.0 0.0 0.0206250008 0.0 0.0 0.0225000009 0.0 0.0 0.0243749991 0.0 0.0 0.0262499992 0.0 0.0 0.0281249993 0.0 0.0 0.0299999993 0.00300000003 0.0 0.0299999993 0.00600000005 0.0 0.0299999993 0.00899999961 0.0 0.0299999993 0.0120000001 0.0 0.0299999993 0.0149999997 0.0 0.0299999993 0.0179999992 0.0 0.0299999993 0.0209999997 0.0 0.0299999993 0.0240000002 0.0 0.0299999993 0.0270000007 0.0 0.0299999993 0.063000001 0.0 0.0299999993 0.0659999996 0.0 0.0299999993 0.0689999983 0.0 0.0299999993 0.0719999969 0.0 0.0299999993 0.075000003 0.0 0.0299999993 0.0780000016 0.0 0.0299999993 0.0810000002 0.0 0.0299999993 0.0839999989 0.0 0.0299999993 0.0869999975 0.0 0.0281249993 0.0900000036 0.0 0.0262499992 0.0900000036 0.0 0.0243749991 0.0900000036 0.0 0.0225000009 0.0900000036 0.0 0.0206250008 0.0900000036 0.0 0.0187500007 0.0900000036 0.0 0.0168750007 0.0900000036 0.0 0.0149999997 0.0900000036 0.0 0.0131249996 0.0900000036 0.0 0.0112500004 0.0900000036 0.0 0.00937500037 0.0900000036 0.0 0.00749999983 0.0900000036 0.0 0.00562500022 0.0900000036 0.0 0.00374999992 0.0900000036 0.0 0.00187499996 0.0900000036 0.0 0.0 0.0869999975 0.0 0.0 0.0839999989 0.0 0.0 0.0810000002 0.0 0.0 0.0780000016 0.0 0.0 0.075000003 0.0 0.0 0.0719999969 0.0 0.0 0.0689999983 0.0 0.0 0.0659999996 0.0 0.0 0.063000001 0.0 0.00240605418 0.0317476094 0.0 0.0132285897 0.0308372527 0.0 0.0114639541 0.0308285281 0.0 0.00970989279 0.0308664478 0.0 0.00796741433 0.030946292 0.0 0.00622726884 0.0310834199 0.0 0.00444168784 0.0313186944 0.0 0.0115238708 0.0404538177 0.0 0.0110589247 0.0399643853 0.0 0.0105802957 0.0394543298 0.0 0.0100896806 0.0389274582 0.0 0.00958756451 0.0383866653 0.0 0.00907252356 0.0378334895 0.0 0.00854044221 0.0372676216 0.0 0.00798357651 0.0366861634 0.0 0.00738931261 0.0360825956 0.0 0.00673822826 0.0354451761 0.0 0.00600026548 0.0347540006 0.0 0.00512524834 0.0339741185 0.0 0.00401390065 0.0330347866 0.0 0.000793838175 0.0438955426 0.0 0.000772442494 0.0426918976 0.0 0.000783006602 0.0414899141 0.0 0.000811753387 0.0402907245 0.0 0.000856733182 0.0390956625 0.0 0.000921554572 0.037906155 0.0 0.00101479655 0.0367233306 0.0 0.00115271518 0.0355465077 0.0 0.00136729016 0.0343677737 0.0 0.00172855402 0.0331514254 0.0 0.0133339632 0.0315873995 0.0 0.0134397261 0.0323022977 0.0 0.0135442559 0.032998085 0.0 0.0136464294 0.0336812399 0.0 0.013745822 0.0343553573 0.0 0.013842525 0.0350228548 0.0 0.0139368745 0.0356853306 0.0 0.0140292263 0.0363436677 0.0 0.0141198216 0.0369979888 0.0 0.0142087657 0.0376475193 0.0 0.0142960874 0.0382902175 0.0 0.0143820234 0.0389216021 0.0 0.0144678745 0.0395311117 0.0 0.0116815548 0.0316202343 0.0 0.011899055 0.0323765688 0.0 0.0121123437 0.033103589 0.0 0.0123189483 0.0338073969 0.0 0.0125182495 0.0344934613 0.0 0.0127108386 0.0351662561 0.0 0.0128977867 0.0358290039 0.0 0.0130801173 0.0364835784 0.0 0.0132585336 0.0371304527 0.0 0.0134333326 0.0377685912 0.0 0.0136044715 0.0383952036 0.0 0.0137717454 0.0390052013 0.0 0.0139350798 0.0395906046 0.0 0.0100520272 0.0317044854 0.0 0.010392216 0.0325013697 0.0 0.0107216369 0.0332574546 0.0 0.01103618 0.0339790136 0.0 0.0113357538 0.0346737355 0.0 0.0116223767 0.0353484601 0.0 0.011898635 0.0360082686 0.0 0.0121667851 0.0366562307 0.0 0.0124283545 0.03
[...]
<PointData>
<DataArray Name="displ" NumberOfComponents="3" type="Float32" format="ascii">-5.711173418371667e-06 4.4101361423384293e-05 0.0 -2.262192290311574e-05 4.994100135301149e-05 0.0 2.9251850005656865e-06 6.638092136703745e-05 0.0 -4.647977180584719e-07 6.162140919011434e-05 0.0 -1.4774330986748672e-06 4.9735664686395473e-05 0.0 -6.30647589806212e-06 7.427465136872191e-05 0.0 -6.016810685675629e-06 7.977273712613793e-05 0.0 -7.826324915501428e-06 7.289703122264567e-05 0.0 -3.2143219651735497e-06 5.345649079263642e-05 0.0 -3.947429992293029e-06 6.127623149439097e-05 0.0 -9.316016816270964e-06 5.805138145701802e-05 0.0 -2.400158656640066e-06 7.422261493487712e-05 0.0 -3.750311407691368e-07 3.698689963884109e-05 0.0 -6.849612438175281e-06 3.866926658562143e-05 0.0 -1.3893436693138404e-05 0.00010219862073387008 0.0 -6.386621511981432e-06 9.201246886820671e-05 0.0 -1.772896421741883e-06 4.878806811821531e-05 0.0 -1.5022325101331442e-06 4.812026742690346e-05 0.0 -3.3147868293209857e-06 4.876133837244566e-05 0.0 -3.8766729866791185e-06 4.6156342832834485e-05 0.0 -3.456366294826317e-06 4.4464932255594275e-05 0.0 -4.889454825375216e-06 4.326368820089724e-05 0.0 -5.026241054696459e-06 4.2448659729738014e-05 0.0 -5.8598648898172805e-06 4.577790768647631e-05 0.0 -4.908711962546547e-06 4.232211621824651e-05 0.0 -5.670149906269819e-06 4.404029159464376e-05 0.0 -5.599820760709644e-06 4.3133082671987645e-05 0.0 -2.7117711944732593e-06 4.255607209423879e-05 0.0 -7.405401169024375e-06 4.560793414387516e-05 0.0 -2.372520466170536e-06 4.300359337464565e-05 0.0 -4.740052708404409e-06 4.6371256261552926e-05 0.0 -5.828040997684203e-06 4.447671022458992e-05 0.0 -3.380516720306771e-06 4.378432986323832e-05 0.0 -4.459126280192665e-06 3.8356914982024924e-05 0.0 -3.3094528971603615e-06 4.4243953233806074e-05 0.0 -2.2954565796368595e-06 4.991473944715591e-05 0.0 -3.619897317632291e-06 3.916996758506412e-05 0.0 7.034592968958455e-06 4.086076299589204e-05 0.0 -8.610391672268205e-06 5.068476351895413e-05 0.0 1.959203608957917e-06 4.712770967043327e-05 0.0 1.6274458935953145e-06 4.3969892335708626e-05 0.0 6.978431417021796e-06 4.400697059246408e-05 0.0 1.5033022004414189e-05 3.979992148921577e-05 0.0 1.7683244903738454e-06 4.03135759555728e-05 0.0 5.871996177810687e-06 4.652326258289232e-05 0.0 -2.8193139728418492e-06 5.403016263884026e-05 0.0 1.6401505301993313e-06 4.644810332400202e-05 0.0 3.5808396446919624e-07 5.670111340473472e-05 0.0 4.888657483880588e-06 4.665219908137516e-05 0.0 -6.930951167525471e-06 6.479554702795366e-05 0.0 4.233307628815954e-06 5.4725775116276206e-05 0.0 -1.3508846926231386e-06 5.800964776889418e-05 0.0 1.3911343607650014e-06 5.339330478685528e-05 0.0 -2.55885567381747e-06 6.297440512751785e-05 0.0 -2.196000589616742e-06 6.421368786478986e-05 0.0 2.345723661229716e-06 6.278225843680467e-05 0.0 -7.424741233542381e-06 6.598410749379872e-05 0.0 1.6987174264859134e-06 6.036253931202791e-05 0.0 -2.2443365377677474e-07 6.62741451637971e-05 0.0 -4.167105952035633e-06 6.127789794440375e-05 0.0 -6.393731160061503e-06 6.253159406439398e-05 0.0 1.6312038969007828e-06 6.011864029294726e-05 0.0 -2.5745129024588205e-06 5.973507645375925e-05 0.0 -7.04077241382659e-08 5.8493315364232996e-05 0.0 -1.4420583582156752e-06 6.075365078811553e-05 0.0 1.215570629015069e-06 6.0326280606064106e-05 0.0 -2.4400519473993943e-06 6.317935770120355e-05 0.0 -3.425650526802676e-06 5.970225295757344e-05 0.0 -1.1896131475946808e-06 5.690571880929012e-05 0.0 -2.7879145761273276e-06 6.204171476737141e-05 0.0 -2.5338427365356804e-06 5.756557457367731e-05 0.0 -1.7544086998761095e-06 6.130277393660949e-05 0.0 -1.979926656852866e-06 5.291984026133741e-05 0.0 -3.2817586241105436e-06 5.725568967101774e-05 0.0 -2.176017878204277e-06 5.495761618359434e-05 0.0 -2.2663120772061008e-06 5.065800823397867e-05 0.0 -2.3366522648292597e-06 5.0635379427710305e-05 0.0 -6.318233696641745e-07 5.255183774422153e-05 0.0 -3.234357424565462e-06 4.587622153176067e-05 0.0 1.766224055916721e-06 6.88860864512666e-05 0.0 1.9591756648416507e-07 7.355591873515058e-05 0.0 1.6373972571719484e-06 6.376763023143361e-05 0.0 -3.320270040413555e-06 6.720672240230194e-05 0.0 2.357144831263215e-06 8.329541585967288e-05 0.0 4.355190089866863e-06 6.956332900466955e-05 0.0 -7.514880627947897e-06 7.170653986425525e-05 0.0 -1.5165592124266612e-06 7.706087401199166e-05 0.0 6.474450158181491e-07 7.47871341003267e-05 0.0 -2.3848098159833173e-06 7.294198047691952e-05 0.0 -1.05200598527831e-06 7.383267699834253e-05 0.0 -2.0587919722163362e-06 7.529180302114816e-05 0.0 -7.550687745326779e-06 7.027842336708707e-05 0.0 -7.194324341774483e-06 7.085917464320042e-05 0.0 -1.03891807942968e-05 7.537327882386489e-05 0.0 -2.422637095774649e-06 7.167349128511086e-05 0.0 -1.073640310515562e-05 7.970490770393362e-05 0.0 -7.291350867301376e-06 7.450563897264912e-05 0.0 -5.028826894280058e-06 7.361737511681295e-05 0.0 -3.279126952731376e-06 8.059706051960274e-05 0.0 -6.921881930265205e-06 7.605780204097828e-05 0.0 -4.013431403441877e-06 7.649675099947865e-05 0.0 -3.489133878196934e-06 7.599001071514563e-05 0.0 -5.745651397061347e-06 7.919511042018117e-05 0.0 -3.973914879315785e-06 7.586017656750607e-05 0.0 -6.790918273949456e-06 7.598434427168475e-05 0.0 -6.3542668181421076e-06 7.639240581574801e-05 0.0 -6.149879185507149e-06 7.81078083889879e-05 0.0 -6.109360656171891e-06 7.864671262647704e-05 0.0 -5.814507116915268e-06 7.91793169711264e-05 0.0 -5.728067715614715e-06 7.969583114439134e-05 0.0 -7.055774672642568e-06 7.766298436846316e-05 0.0 -7.568877130712833e-06 7.848978672959622e-05 0.0 -8.009183152617244e-06 7.812477631423043e-05 0.0 -7.854187882631902e-06 7.646464011030977e-05 0.0 -8.238853405180597e-06 7.715146243215379e-05 0.0 -7.899509458871684e-06 7.50104752499957e-05 0.0 -6.996105902137029e-06 7.394716716681315e-05 0.0 -7.462169908701418e-06 7.17469085516899e-05 0.0 -6.974800664289186e-06 7.278341921493682e-05 0.0 -7.059585423666096e-06 7.256378140555318e-05 0.0 -3.238884826602071e-06 7.311047195145957e-05 0.0 -4.476751451347874e-06 6.880210832827011e-05 0.0 -4.303020334177947e-06 6.962097033334826e-05 0.0 -4.828960505090354e-06 6.905382319647198e-05 0.0 -3.4945201021800187e-06 6.634699553514753e-05 0.0 -2.2273311376297602e-07 6.660289575165846e-05 0.0 -2.252371302179562e-06 6.677179308213786e-05 0.0 -1.8955251413913387e-06 6.437443958414593e-05 0.0 -9.965718270654622e-06 6.396317012161793e-05 0.0 -2.0810230462652602e-06 5.725402429757664e-05 0.0 -4.240822832695645e-06 6.22549851993611e-05 0.0 -6.545893583993328e-06 6.185461366531822e-05 0.0 -7.389664471879343e-06 5.174781555035352e-05 0.0 -7.988765612399735e-06 5.850840325027389e-05 0.0 -1.203199104168581e-05 5.0579469130019735e-05 0.0 -9.578389002304283e-06 5.219711659447626e-05 0.0 -1.19892636192224e-05 4.757513284925836e-05 0.0 -2.3598532702304257e-06 5.365038947200949e-05 0.0 -6.169849137473464e-06 4.942487317093555e-05 0.0 -2.461564975636526e-06 5.7978704099278325e-05 0.0 -7.325551318219147e-06 4.115745538359611e-05 0.0 -9.571222934586212e-06 4.89565755868356e-05 0.0 -2.288188393100153e-06 4.90655610127228e-05 0.0 1.037343480166181e-06 4.766614949622352e-05 0.0 -1.2248652918295788e-05 4.766111502236381e-05 0.0 -6.226169150081154e-06 4.410078716438569e-05 0.0 -6.4794963750347026e-06 4.553079702730272e-05 0.0 -7.35699952900801e-06 4.986998134013078e-05 0.0 -6.612242339481012e-06 5.140746250541574e-05 0.0 -5.788762680365973e-06 5.337921287557289e-05 0.0 -5.676248377929571e-06 5.381820378227772e-05 0.0 -5.762862424675181e-06 5.4517415470722286e-05 0.0 -3.451388232240269e-06 5.604937292928636e-05 0.0 -5.534826141129083e-06 5.647983204583114e-05 0.0 -2.410947536811793e-06 5.877925927967285e-05 0.0 -3.992666826394977e-06 6.125746614549974e-05 0.0 -2.288684096847506e-06 5.969994923487211e-05 0.0 -4.384651644561916e-06 6.08807885291803e-05 0.0 -2.7497310912664795e-06 6.772397044639898e-05 0.0 -4.275787526244656e-06 7.085963465732887e-05 0.0 -3.9365077972412965e-06 5.888746385167746e-05 0.0 -4.2378188156268786e-06 6.077390761812687e-05 0.0 -5.509424720715924e-06 5.86453356237402e-05 0.0 -1.5491344663124597e-06 6.711489861019616e-05 0.0 2.931784842438813e-06 6.488720087042621e-05 0.0 -4.587679067554596e-06 5.907486836122567e-05 0.0 -1.6231505623256581e-06 6.112826926128342e-05 0.0 -2.539287867095227e-06 6.122495531534247e-05 0.0 -2.862554492919268e-06 5.898272248390817e-05 0.0 -3.893292249776121e-06 5.97237037641104e-05 0.0 -1.5644254451623416e-06 6.128340604435545e-05 0.0 -2.2551984822864655e-06 5.8642284617278346e-05 0.0 -3.3554664023070967e-06 6.119493231630765e-05 0.0 -7.404115279927024e-06 6.039859945653032e-05 0.0 -5.723383330318601e-06 6.686650339260423e-05 0.0 -5.645213354508852e-06 5.970880289982567e-05 0.0 -4.176105045695252e-06 6.811914914104778e-05 0.0 -8.399073223728451e-07 7.433098851268436e-05 0.0 -1.8708258565015614e-06 7.499716129408055e-05 0.0 -1.3520111425161183e-06 7.559675245363563e-05 0.0 -3.2925083392446736e-06 7.618251967460445e-05 0.0 -3.531143451487076e-06 7.419087375385614e-05 0.0 -4.674861128433325e-06 7.781883362490979e-05 0.0 -3.197049379842233e-06 7.741386803721639e-05 0.0 -3.261241033379108e-06 7.724269152371695e-05 0.0 -4.974248761397602e-06 7.35713220310607e-05 0.0 -7.293434729134305e-06 7.311759223080423e-05 0.0 -2.165150194394674e-06 7.077925658376286e-05 0.0 -9.187450664415527e-06 7.659998940520946e-05 0.0 -3.851676342622569e-06 6.810021967921502e-05 0.0 -1.971680813741713e-06 6.58226393222766e-05 0.0 -3.074893883160173e-06 7.57434501354205e-05 0.0 -9.866858813753006e-06 6.651573406610465e-05 0.0 -3.1455854349630005e-06 6.436281625795303e-05 0.0 -1.2168896495875141e-05 8.059043143162197e-05 0.0 -5.275314749718612e-07 6.501220175443848e-05 0.0 -5.320886364567084e-06 7.352761627928161e-05 0.0 -1.1551825961693954e-05 5.988288377182053e-05 0.0 -1.1273544392977417e-05 7.053805763622443e-05 0.0 -9.227854935177507e-06 6.987467655809991e-05 0.0 -4.116977161133588e-06 7.185171380483848e-05 0.0 -4.002848804840632e-06 6.2308424602554e-05 0.0 -1.4764445588905476e-06 6.099064097574376e-05 0.0 -3.3515817734245076e-06 5.983235972287017e-05 0.0 -1.2307001545550197e-06 6.802141537558983e-05 0.0 -1.3596478065024507e-06 6.507622633392691e-05 0.0 -1.0611632266189796e-06 6.351359216902199e-05 0.0 -6.624598690709074e-07 6.026476156926768e-05 0.0 -2.359777410817525e-06 7.229857867110475e-05 0.0 -1.7350170644307645e-06 6.875747751337531e-05 0.0 -1.4267608612257597e-06 7.155371366916218e-05 0.0 -2.850485432621717e-06 7.00884435590508e-05 0.0 -2.476212513417149e-07 4.452636623569094e-05 0.0 -1.5008980309036554e-06 4.5335458293888576e-05 0.0 3.724559558636145e-07 4.244969905221079e-05 0.0 -3.847263054705958e-07 3.981330866782778e-05 0.0 4.5395613408376875e-08 4.2167300915905e-05 0.0 -3.804765581591752e-07 3.99744052329938e-05 0.0 -1.1283592280202796e-07 3.835312814713879e-05 0.0 -5.647089598741154e-07 3.704082121653272e-05 0.0 2.329493180528667e-07 3.634186254819952e-05 0.0 -1.7859717217304145e-06 3.796773172446623e-05 0.0 -2.8334433688651184e-06 3.93601647511766e-05 0.0 -2.700221262051717e-06 3.883774248744618e-05 0.0 -6.251631559235176e-06 3.841898095054679e-05 0.0 -4.971328508860696e-06 3.764432716419579e-05 0.0 -5.806309923029857e-06 3.7199376022442385e-05 0.0 -5.743713487717299e-06 3.71291696362726e-05 0.0 -8.15382288852841e-06 3.4986032977597954e-05 0.0 -6.490840224440593e-06 3.500480572004528e-05 0.0 -6.745525985033e-06 3.67484749170941e-05 0.0 -7.740549421703722e-06 3.812997971540669e-05 0.0 -7.565882074086622e-06 3.991835243868648e-05 0.0 -7.680076449764594e-06 4.037915527969803e-05 0.0 -6.891909593941281e-06 4.1755781990196456e-05 0.0 -6.886613387805116e-06 4.004307054135598e-05 0.0 -6.951369553620527e-06 4.1699786407233734e-05 0.0 -7.097009488925834e-06 4.128967834954276e-05 0.0 -7.3242614233248065e-06 4.084391024156345e-05 0.0 -8.574274230210788e-06 4.395650180820396e-05 0.0 -9.087931429856916e-06 4.30165890587313e-05 0.0 -9.005691583459338e-06 4.631151049013522e-05 0.0 -7.903287030398283e-06 4.490518170423711e-05 0.0 -6.6129762655059555e-06 4.835131622499097e-05 0.0 -4.909909698484418e-06 5.050658052521014e-05 0.0 -3.6912970392253917e-06 7.516018117220601e-05 0.0 -5.2088357444255985e-06 7.855051367748921e-05 0.0 -6.827245935488691e-06 7.977013015727785e-05 0.0 -7.168570905888033e-06 8.225680587184914e-05 0.0 -5.847137011041892e-06 8.737105283380851e-05 0.0 -7.46020160060787e-06 8.594694918341728e-05 0.0 -9.53603690261802e-06 8.986326233938377e-05 0.0 -1.226518063744757e-05 9.401263236935791e-05 0.0 -1.2334784300752575e-05 9.5582344713288e-05 0.0 -1.081685481026196e-05 0.00010123526519399871 0.0 -1.1485925047585838e-05 0.00010085359736224824 0.0 -1.0009617313556218e-05 0.00010117952808670211 0.0 -8.326074875256336e-06 0.0001010641800871991 0.0 -8.47838855760673e-06 0.00010223120307073903 0.0 -4.377212795411214e-06 0.00010075008668981881 0.0 -5.213167335182415e-06 0.00010187941270064146 0.0 -5.0105221515990566e-06 0.00010030044260834196 0.0 -2.9625171307277344e-06 9.946882894443008e-05 0.0 -4.187984745552377e-06 9.867205011347245e-05 0.0 -5.33404552113111e-06 9.741008129933711e-05 0.0 -3.916770232566847e-06 9.59246553558109e-05 0.0 -5.788919147420199e-06 9.488101812058728e-05 0.0 -5.052298252246778e-06 9.441529197186563e-05 0.0 -4.936733274116693e-06 9.557274415902352e-05 0.0 -5.832129929349338e-06 9.360973501859192e-05 0.0 -6.938588095203835e-06 9.051283188080939e-05 0.0 -6.675786384019459e-06 9.106807074277713e-05 0.0 -8.509162562467139e-06 8.998863279785801e-05 0.0 -8.090302654402061e-06 8.8643666831395e-05 0.0 -8.508985997675375e-06 8.524459570674356e-05 0.0 -8.102588700528743e-06 8.116408309256516e-05 0.0 -7.309284031032958e-06 7.914373135238047e-05 0.0 -7.332780027112889e-06 7.428460028566323e-05 0.0 -1.8552947790361366e-06 4.9282528199528014e-05 0.0 -3.996233459760173e-06 4.3573499828520415e-05 0.0 -5.218440266502759e-06 4.5540520087282785e-05 0.0 -4.067241662718751e-06 4.37578010290197e-05 0.0 -2.998962604962299e-06 4.643850900271319e-05 0.0 -3.2490887896987122e-06 4.577108855961558e-05 0.0 -3.652354890645948e-06 4.5590709475537336e-05 0.0 -3.637415333221666e-06 4.603264803758684e-05 0.0 -2.3375094143751595e-06 5.25661144419414e-05 0.0 -4.249067187949563e-06 4.8156137641694894e-05 0.0 -3.406184233040389e-06 4.861953266735161e-05 0.0 -3.496297801342491e-06 4.945569908308884e-05 0.0 -6.115510465838221e-06 4.8399377179332575e-05 0.0 -4.375665559903237e-06 5.199130655153044e-05 0.0 -5.1087471446625236e-06 4.800590075406978e-05 0.0 -3.593544727152009e-06 4.9735016462828785e-05 0.0 -3.5975526540403646e-06 4.8359270643560435e-05 0.0 -3.891235977792915e-06 5.0052278598881935e-05 0.0 -2.7341872361086962e-06 4.839768348168563e-05 0.0 -3.593234970471105e-06 4.888709738259907e-05 0.0 -2.774201772868253e-06 6.20851291326188e-05 0.0 -3.348358677044274e-06 5.8376224012209476e-05 0.0 -3.98085176569908e-06 5.895806959878648e-05 0.0 -1.6709233253803804e-06 5.503891221452212e-05 0.0 -2.37588232839419e-06 5.8452036357645324e-05 0.0 -2.735404938703952e-06 5.3975294151578906e-05 0.0 -5.1840373543404975e-06 5.3021002425851335e-05 0.0 -1.5125659761407878e-06 5.379582971168073e-05 0.0 -1.8482726370362254e-06 5.08481534836657e-05 0.0 -1.9405492876039007e-06 5.0269366138764614e-05 0.0 -6.033199520777596e-06 4.474337904208098e-05 0.0 -5.787506530030661e-06 4.482675176131767e-05 0.0 -5.363739521391186e-06 4.26772882693699e-05 0.0 -4.341680492877456e-06 4.400366250170014e-05 0.0 -5.014970242654384e-06 4.2170817338622033e-05 0.0 -4.502444553714265e-06 4.407773039447416e-05 0.0 -6.342151625270568e-06 4.4536996015025734e-05 0.0 -3.2538916884987663e-06 4.4583650285564874e-05 0.0 -4.89294726747246e-06 4.613710527171772e-05 0.0 -3.5856434210507088e-06 5.039621462762637e-05 0.0 -5.044113643445012e-06 4.658317791341211e-05 0.0 -6.583956619682501e-06 4.3355409126115006e-05 0.0 -3.0545866203132668e-06 5.294746003646284e-05 0.0 -5.421141805680734e-06 4.481498029701112e-05 0.0 -4.766039665030697e-06 4.337699453029877e-05 0.0 -5.2129540443941325e-06 4.491132233105844e-05 0.0 -4.574100909899387e-06 4.484908947856192e-05 0.0 -2.028575425219379e-06 4.478789832952613e-05 0.0 -3.872111315479767e-06 4.554312290444414e-05 0.0 -4.434328446321039e-06 4.588393963268679e-05 0.0 -3.965231051260993e-06 4.589306756183929e-05 0.0 -7.289841083976822e-06 4.5139503892341524e-05 0.0 -4.645220201405493e-06 4.501953570984108e-05 0.0 -2.760053764961686e-06 4.6065477329233316e-05 0.0 -4.994579989959255e-06 4.2313168117471014e-05 0.0 -3.7713385401926304e-06 4.285210895237923e-05 0.0 -3.160876131940419e-06 4.4312568348519274e-05 0.0 -4.144449860300392e-06 4.546219051437608e-05 0.0 -3.762441016160527e-06 4.507770576352066e-05 0.0 -3.384266760347813e-06 4.3599626236085924e-05 0.0 -4.457438730796647e-06 4.502046443441007e-05 0.0 -4.692973839484567e-06 4.5462306843363075e-05 0.0 -7.083107856832232e-06 4.521820077652444e-05 0.0 -4.398972295977082e-06 4.449991077018827e-05 0.0 -4.561721149768833e-06 4.7059008301698716e-05 0.0 -6.086332448750328e-06 4.458920724251573e-05 0.0 -2.419078110875476e-06 4.5279245545950114e-05 0.0 -5.544370808096155e-06 4.679672414249021e-05 0.0 -4.9749622564199175e-06 4.751962116687805e-05 0.0 -4.523962609669784e-06 4.754793707144463e-05 0.0 -5.179574441250452e-06 4.6144761866557964e-05 0.0 -4.802212849326566e-06 4.717723058961673e-05 0.0 -3.9442682462866435e-06 4.610754441214783e-05 0.0 -4.9040954528114e-06 4.779175303528942e-05 0.0 -5.935730909177594e-06 4.5576982058141925e-05 0.0 -2.868815609515838e-06 4.919167166969713e-05 0.0 -2.8188970874899564e-06 4.6557045504360894e-05 0.0 -4.942429290376997e-06 4.687218061938179e-05 0.0 -4.361712033847194e-06 4.8450244837551876e-05 0.0 -7.140694168063846e-07 4.5697033965438155e-05 0.0 -1.5207184387855859e-06 4.63281195843158e-05 0.0 -8.147965189427951e-06 4.908608657888346e-05 0.0 -4.194126237761067e-06 4.667750053759559e-05 0.0 -2.4897112135143675e-06 4.5767157668332496e-05 0.0 -3.94902720605968e-06 4.687522886342422e-05 0.0 -4.756004262290293e-06 4.722211480664109e-05 0.0 -5.439268158181767e-06 4.502778854829596e-05 0.0 -6.541889858880322e-06 4.5184077198216433e-05 0.0 -5.537004422856959e-06 4.707028656591834e-05 0.0 -5.502844182314363e-06 4.6825729086542e-05 0.0 -5.501594046411491e-06 4.873929894083681e-05 0.0 -2.551964559750984e-06 4.469686964625967e-05 0.0 -5.7737886110703105e-06 4.780800507613585e-05 0.0 -4.973968304100948e-07 4.612194840647581e-05 0.0 -1.0445764729052654e-05 4.98704784470767e-05 0.0 -4.152921240728938e-06 4.818512267728615e-05 0.0 -3.30464304249483e-06 4.924431987611658e-05 0.0 -3.858305896165352e-06 4.940810573709859e-05 0.0 -3.8772771412103955e-06 5.0078836070673106e-05 0.0 -4.527961689076936e-06 4.943811775053911e-05 0.0 -4.24340654901233e-06 5.1837429805615196e-05 0.0 -1.5777030596612919e-06 4.974059474593801e-05 0.0 -5.210136607103946e-06 4.980230320301495e-05 0.0 -4.2404581484732124e-06 4.8221662687256976e-05 0.0 -3.4983223926510773e-06 5.3366851753520556e-05 0.0 -6.587791220435708e-06 4.609296416287055e-05 0.0 -8.53916146995908e-06 5.081381448277144e-05 0.0 -6.650324709539101e-07 4.590492541870632e-05 0.0 -5.187480117249238e-06 5.253753048395897e-05 0.0 -2.296278037773741e-06 4.789272710595399e-05 0.0 -4.0853258429982555e-06 5.1439992751230316e-05 0.0 1.6570317738097778e-06 5.067422816108502e-05 0.0 -1.0999553834976675e-06 5.357394789512786e-05 0.0 -3.89713645954943e-06 5.327613466598115e-05 0.0 -1.8431386252448224e-06 5.78648654080631e-05 0.0 1.2489026364112362e-06 5.8774196363078904e-05 0.0 5.36572106352056e-06 6.358538748258631e-05 0.0 -3.335069318173964e-06 6.408802207873192e-05 0.0 -2.191017145037645e-06 5.0897426393731505e-05 0.0 -4.337349391924164e-06 5.53637349942338e-05 0.0 -3.3430865091996007e-06 4.7874081442709506e-05 0.0 -9.78303522608994e-06 5.8092092988464035e-05 0.0 6.162965880554558e-06 5.161078362712414e-05 0.0 -8.383976251762296e-06 5.645362944058583e-05 0.0 7.350455926491581e-07 5.8574179527925016e-05 0.0 -1.4295356921385965e-06 5.824751006690129e-05 0.0 -8.572046005141845e-06 6.2386