<?xml version="1.0" ?>
<VTKFile type="UnstructuredGrid" version="0.1" byte_order="LittleEndian">
<UnstructuredGrid>
<Piece NumberOfPoints="5466" NumberOfCells="5460">
<Points>
<DataArray type="Float32" format="ascii" NumberOfComponents="3">48.8012695 157.5 0.0 49.3786545 156.903366 0.0 54.6995354 156.903366 0.0 54.832119 157.5 0.0 12.9726191 146.541656 0.0 12.9726191 147.941879 0.0 12.1324806 148.501984 0.0 10.7322483 148.501984 0.0 12.1324806 146.261612 0.0 9.33201599 146.541656 0.0 93.9060364 88.2919998 0.0 94.4661255 84.9314423 0.0 95.1662445 83.9512787 0.0 96.4264526 84.9314423 0.0 95.3062668 87.7319031 0.0 141.25 60.8996162 0.0 141.25 70.1263504 0.0 129.471924 72.0493011 0.0 127.23156 73.7295837 0.0 114.349426 72.6093979 0.0 121.070534 76.8100891 0.0 125.271233 77.3701859 0.0 128.071701 66.4483719 0.0 118.550117 70.6490707 0.0 114.349426 70.6490707 0.0 91.3829498 -2.5 0.0 93.0658951 -0.762765169 0.0 89.7053375 -1.32285798 0.0 91.6656647 0.0773741007 0.0 88.5281982 -2.5 0.0 93.9060364 82.9711151 0.0 82.1440811 69.8089294 0.0 84.1044083 68.9687958 0.0 111.548958 62.2476807 0.0 97.2665939 82.9711151 0.0 -18.75 123.99192 0.0 -18.75 101.409142 0.0 -6.35058355 101.454178 0.0 -6.35058355 98.653717 0.0 -13.9118366 122.177612 0.0 -10.2712336 121.897568 0.0 -3.5501194 78.7704163 0.0 -4.95035124 77.3701859 0.0 -0.189562261 76.8100891 0.0 3.17099476 78.7704163 0.0 25.2946625 35.6432686 0.0 21.9341049 37.0435028 0.0 17.733408 37.0435028 0.0 20.5338726 34.8031311 0.0 17.173315 35.6432686 0.0 24.4545231 33.4028969 0.0 -18.6726265 22.4810867 0.0 -18.75 22.5584621 0.0 -18.75 21.6450214 0.0 -18.6726265 21.6409492 0.0 141.25 98.7020721 0.0 141.233887 98.653717 0.0 139.833649 94.4530182 0.0 141.25 92.6319885 0.0 126.671463 153.542816 0.0 127.23156 156.063232 0.0 121.070534 157.183411 0.0 119.670303 156.903366 0.0 123.310905 152.702667 0.0 125.271233 152.702667 0.0 112.944321 157.5 0.0 112.949188 157.463455 0.0 127.830215 157.5 0.0 -2.99002647 157.463455 0.0 -2.96914721 157.5 0.0 -3.05579591 157.5 0.0 128.071701 78.7704163 0.0 141.25 74.0886536 0.0 141.25 81.2400513 0.0 128.071701 86.3316727 0.0 127.23156 85.7715759 0.0 128.351746 84.3713455 0.0 127.511604 80.1706467 0.0 127.23156 88.8520889 0.0 129.471924 89.1321335 0.0 137.593277 93.0527878 0.0 137.593277 94.4530182 0.0 125.271233 95.2931595 0.0 125.831329 92.2126465 0.0 126.111374 78.7704163 0.0 141.25 3.43793106 0.0 140.393738 3.43793106 0.0 139.553604 2.59779191 0.0 141.25 0.562112689 0.0 89.904213 157.5 0.0 89.7053375 156.903366 0.0 94.4661255 156.903366 0.0 103.427612 151.302444 0.0 108.1884 151.302444 0.0 108.748497 152.702667 0.0 111.548958 152.702667 0.0 78.7287216 157.5 0.0 78.7835312 157.463455 0.0 82.9842224 155.503143 0.0 116.309746 138.980392 0.0 114.909515 139.820541 0.0 114.349426 141.780869 0.0 110.148727 144.581329 0.0 110.148727 149.902206 0.0 110.988869 149.902206 0.0 103.987709 148.782028 0.0 106.228073 145.141418 0.0 110.988869 138.420303 0.0 114.349426 135.619843 0.0 116.309746 137.020065 0.0 127.23156 145.981552 0.0 122.470772 144.581329 0.0 128.911835 143.74118 0.0 129.471924 141.780869 0.0 128.63179 141.780869 0.0 120.510445 119.937241 0.0 118.550117 119.937241 0.0 118.550117 117.976913 0.0 114.349426 116.576683 0.0 112.949188 115.176453 0.0 112.389099 110.975754 0.0 114.349426 109.015434 0.0 112.949188 106.214966 0.0 116.309746 100.614037 0.0 121.070534 97.8135757 0.0 141.25 157.5 0.0 60.3004646 152.702667 0.0 67.2565918 157.5 0.0 -11.0236473 157.5 0.0 -3.5501194 151.302444 0.0 -2.99002647 153.822861 0.0 -2.14988708 154.662994 0.0 4.57122707 152.702667 0.0 1.21066988 153.542816 0.0 3.45104122 144.861374 0.0 4.01113415 142.621002 0.0 5.97145891 143.181091 0.0 7.37169123 145.981552 0.0 0.650577009 154.662994 0.0 19.1336403 145.981552 0.0 21.9341049 147.38179 0.0 26.8899632 157.5 0.0 22.4941978 145.981552 0.0 26.6948948 140.38063 0.0 31.4556828 130.859055 0.0 34.2561455 132.259277 0.0 106.228073 98.653717 0.0 101.467285 95.2931595 0.0 95.8663559 91.0924606 0.0 93.9060364 90.2523193 0.0 97.244957 -2.5 0.0 95.3062668 -0.912123263 0.0 108.1884 29.4822483 0.0 112.389099 29.4822483 0.0 108.1884 30.8824806 0.0 141.25 32.3293266 0.0 133.952667 19.680624 0.0 129.471924 19.1205311 0.0 134.232712 11.5592775 0.0 134.792816 7.35858107 0.0 136.193039 6.23839521 0.0 136.193039 2.03769898 0.0 131.12149 -2.5 0.0 141.25 -2.5 0.0 105.361542 -2.5 0.0 101.467285 -2.16299725 0.0 101.467285 -1.32285798 0.0 93.0658951 91.0924606 0.0 88.3051071 90.2523193 0.0 -18.75 151.013153 0.0 -18.6726265 150.74234 0.0 -13.0716972 149.342117 0.0 -12.2315578 146.541656 0.0 -8.31090832 141.780869 0.0 -6.91067648 141.780869 0.0 -3.5501194 144.581329 0.0 -18.75 157.5 0.0 90.5454788 0.637466967 0.0 110.988869 125.258125 0.0 107.628311 126.658356 0.0 103.987709 126.098259 0.0 102.027382 121.897568 0.0 92.505806 115.176453 0.0 82.7041779 104.814735 0.0 100.067055 96.4133453 0.0 80.7438507 104.814735 0.0 78.7835312 103.414505 0.0 77.9433899 102.014267 0.0 78.7835312 100.053947 0.0 80.7438507 99.2138062 0.0 60.8605576 150.74234 0.0 59.4603233 149.902206 0.0 60.0204163 138.420303 0.0 58.0600929 132.259277 0.0 60.3004646 131.979233 0.0 67.5816727 131.139099 0.0 71.7823639 133.379471 0.0 112.389099 128.898727 0.0 31.4556828 130.298965 0.0 35.6563797 129.458817 0.0 40.4171677 128.898727 0.0 40.9772606 127.498497 0.0 49.3786545 126.658356 0.0 50.4988403 128.058594 0.0 53.299305 128.898727 0.0 54.6995354 128.058594 0.0 56.0997696 130.298965 0.0 57.5 130.298965 0.0 -0.189562261 136.459976 0.0 -1.30974793 136.459976 0.0 -4.11021233 133.659515 0.0 -3.5501194 132.819382 0.0 -0.749655128 134.219604 0.0 -6.07053709 135.619843 0.0 1.21066988 137.020065 0.0 1.21066988 137.58017 0.0 -0.189562261 137.860214 0.0 1.21066988 138.420303 0.0 3.17099476 138.420303 0.0 3.17099476 141.500809 0.0 9.33201599 135.619843 0.0 9.33201599 128.058594 0.0 28.6552181 126.658356 0.0 30.0554504 126.9384 0.0 27.2549877 122.737709 0.0 28.6552181 122.737709 0.0 29.4953575 123.297798 0.0 34.8162384 121.897568 0.0 29.4953575 121.897568 0.0 42.3774948 115.176453 0.0 43.7777252 114.616356 0.0 41.5373535 121.337471 0.0 75.1429214 103.414505 0.0 74.5828323 100.053947 0.0 75.7030182 99.2138062 0.0 108.748497 47.965313 0.0 141.25 34.6938629 0.0 111.548958 54.9664726 0.0 110.148727 54.1263313 0.0 107.628311 49.9256363 0.0 105.387939 49.3655434 0.0 100.627151 42.3643837 0.0 100.067055 41.8042908 0.0 101.467285 37.6035957 0.0 105.667984 35.0831757 0.0 107.068214 32.842804 0.0 114.349426 27.2418766 0.0 120.510445 24.1613655 0.0 127.23156 21.9209957 0.0 97.826683 41.8042908 0.0 97.2665939 40.9641495 0.0 97.826683 31.4425735 0.0 103.147568 28.6421089 0.0 96.4264526 32.842804 0.0 93.0658951 32.842804 0.0 92.505806 23.3212261 0.0 95.0262222 28.082016 0.0 96.7064972 31.4425735 0.0 92.505806 20.5207634 0.0 90.5454788 18.5604382 0.0 90.2654343 17.1602058 0.0 89.7053375 6.23839521 0.0 69.8220444 97.253479 0.0 67.0215759 93.0527878 0.0 67.0215759 89.6922302 0.0 67.5816727 89.6922302 0.0 71.2222748 85.4915314 0.0 71.7823639 83.2511597 0.0 -9.71114063 122.737709 0.0 -6.91067648 122.737709 0.0 -4.95035124 121.337471 0.0 -3.5501194 122.737709 0.0 -2.14988708 123.297798 0.0 71.2222748 1.47760618 0.0 75.1998825 -2.5 0.0 85.7846909 18.5604382 0.0 81.3039474 28.6421089 0.0 76.5431595 28.082016 0.0 75.1429214 22.7611332 0.0 68.421814 6.23839521 0.0 66.1814423 3.43793106 0.0 66.4614868 2.59779191 0.0 55.2596283 110.13562 0.0 58.9002304 109.015434 0.0 59.4603233 104.254639 0.0 63.6610222 105.374825 0.0 45.1779594 112.936081 0.0 49.9387474 112.375992 0.0 51.3389778 113.216125 0.0 51.8990707 119.097099 0.0 52.739212 119.377151 0.0 51.3389778 124.137939 0.0 49.9387474 124.698029 0.0 53.8593979 110.13562 0.0 -4.11021233 109.015434 0.0 -3.5501194 113.776222 0.0 -2.14988708 114.056267 0.0 -4.95035124 118.53701 0.0 -4.39025831 119.937241 0.0 -4.95035124 105.374825 0.0 -0.749655128 114.336311 0.0 -0.749655128 112.375992 0.0 -0.189562261 121.337471 0.0 3.45104122 120.497337 0.0 8.77192307 125.53817 0.0 17.173315 107.335152 0.0 19.1336403 120.497337 0.0 16.3331757 123.297798 0.0 12.9726191 124.698029 0.0 10.1721554 126.098259 0.0 23.8944302 122.737709 0.0 26.6948948 101.454178 0.0 28.6552181 99.2138062 0.0 36.2164726 101.454178 0.0 40.4171677 106.214966 0.0 42.3774948 111.535851 0.0 43.7777252 111.815895 0.0 58.0600929 103.414505 0.0 57.2199554 99.2138062 0.0 56.9399071 91.9326019 0.0 57.5 90.2523193 0.0 58.9002304 90.2523193 0.0 62.8208809 87.7319031 0.0 66.4614868 89.6922302 0.0 81.3039474 68.408699 0.0 85.7846909 62.2476807 0.0 88.8651962 51.3258705 0.0 92.505806 46.5650787 0.0 95.0262222 46.0049858 0.0 92.505806 38.407238 0.0 95.8663559 40.9641495 0.0 92.505806 35.6432686 0.0 81.3039474 29.4822483 0.0 91.1055679 35.6432686 0.0 86.9048767 29.4822483 0.0 78.7835312 29.4822483 0.0 62.8208809 85.2114868 0.0 64.5011597 82.9711151 0.0 65.0612564 80.1706467 0.0 66.1814423 80.1706467 0.0 75.9830627 67.2885132 0.0 64.2211151 26.6817837 0.0 65.6213455 24.7214584 0.0 65.6213455 20.5207634 0.0 68.7018585 26.1216908 0.0 68.421814 28.082016 0.0 65.0612564 10.1590452 0.0 62.8208809 6.23839521 0.0 47.1382828 -1.32285798 0.0 46.843998 -2.5 0.0 56.6598625 5.39825583 0.0 50.4988403 2.59779191 0.0 37.616703 97.8135757 0.0 39.5770302 96.1332932 0.0 43.2176323 95.8532486 0.0 45.7380486 93.0527878 0.0 46.5781898 88.8520889 0.0 54.6995354 86.3316727 0.0 15.2129908 100.053947 0.0 0.650577009 112.375992 0.0 -6.35058355 96.6933899 0.0 -9.71114063 92.492691 0.0 -9.15104771 87.171814 0.0 -5.51044416 81.5708847 0.0 15.7730837 93.8929214 0.0 15.7730837 99.2138062 0.0 18.2935009 102.014267 0.0 18.8535938 103.974594 0.0 17.733408 104.814735 0.0 16.6132221 101.454178 0.0 23.0542908 98.653717 0.0 23.8944302 96.6933899 0.0 28.0951252 97.8135757 0.0 47.1382828 78.7704163 0.0 47.9784203 80.1706467 0.0 49.9387474 80.1706467 0.0 54.1394424 82.1309738 0.0 62.8208809 75.4098587 0.0 63.6610222 74.569725 0.0 63.6610222 79.330513 0.0 68.421814 67.8486099 0.0 69.8220444 68.408699 0.0 73.1826019 66.7284241 0.0 75.983
[...]
<PointData>
<DataArray Name="displ" NumberOfComponents="3" type="Float32" format="ascii">-0.4286470299887203 5.359909638737571 0.0 -0.4285216080496925 5.359211358121756 0.0 -0.4297639735670076 5.362522088769386 0.0 -0.4298585381355588 5.363400978876001 0.0 -0.3888070371457286 5.277699894146898 0.0 -0.38932200432693354 5.287652624802678 0.0 -0.38722984393151694 5.2906477371766565 0.0 -0.3838858855558924 5.29112167587052 0.0 -0.3868823720152997 5.277512562903607 0.0 -0.3847486037820585 5.276999115631636 0.0 -0.433058982604127 4.966491411389032 0.0 -0.43344400842113057 4.9429191080009875 0.0 -0.43438673811750045 4.935615822140684 0.0 -0.43401172837909374 4.940092106805857 0.0 -0.4327627266239498 4.959040550025147 0.0 -0.46194529447508803 4.751117447106564 0.0 -0.4708577350164123 4.812483964057529 0.0 -0.4594396436852279 4.826337679710892 0.0 -0.45449296971869707 4.8380244596959825 0.0 -0.43974539025152115 4.830824108484586 0.0 -0.4500424773446252 4.85491105040876 0.0 -0.45154718237068464 4.85959313104801 0.0 -0.45480420995118764 4.783696805080513 0.0 -0.4417262253252019 4.820110264784067 0.0 -0.4352735358468461 4.819976263479545 0.0 -0.38633800724157996 4.456435873135313 0.0 -0.38936532297962273 4.447169191652827 0.0 -0.38655050949987974 4.470661741315135 0.0 -0.38812362064108263 4.460333841658937 0.0 -0.38605669769659856 4.482182479380154 0.0 -0.43125385071830685 4.931465801266227 0.0 -0.42465794328709056 4.878385134038737 0.0 -0.42220969803358954 4.869634250351032 0.0 -0.42561972596354875 4.770779597770155 0.0 -0.43514501214131474 4.927466664872017 0.0 -0.34092219327634604 5.12066762106927 0.0 -0.34078442248019714 4.990320721321372 0.0 -0.3573189350980896 4.985168257751669 0.0 -0.3597460721309883 4.967759302695063 0.0 -0.34640933158100656 5.109942679712972 0.0 -0.3517810751987627 5.109210009221522 0.0 -0.34719989387262795 4.826982348430783 0.0 -0.34676323378259916 4.816850638626496 0.0 -0.35288990686045785 4.817232520516461 0.0 -0.3575341566032787 4.8316235045909295 0.0 -0.36472907615745376 4.628891004185939 0.0 -0.3655803721194378 4.618400678258321 0.0 -0.3595119371755774 4.602027915913024 0.0 -0.3620637584519972 4.5941879941672585 0.0 -0.35892745678398263 4.5889804937542875 0.0 -0.3635578133758034 4.6079914509856845 0.0 -0.3062509943467019 4.386964927052662 0.0 -0.3063858577419012 4.387527296537316 0.0 -0.3063947243916722 4.380795545614335 0.0 -0.30641520491567187 4.380764128726195 0.0 -0.4786309952743285 4.997864197496632 0.0 -0.4786243742516916 4.9976066853576215 0.0 -0.48003809633048206 4.976526101526811 0.0 -0.47915763996584776 4.966140297837297 0.0 -0.5116289286165089 5.345385556352493 0.0 -0.5109421107885801 5.350294489233322 0.0 -0.5078667348976558 5.361679539235231 0.0 -0.504909273870366 5.363243617171491 0.0 -0.5092081364157135 5.345584095255119 0.0 -0.5105816241694626 5.343394914496102 0.0 -0.5029900652187284 5.371096132050723 0.0 -0.5030020950461668 5.371091593085971 0.0 -0.5114206005680166 5.349976386764925 0.0 -0.3553486291010427 5.3148647224552 0.0 -0.3552387748635206 5.315090547388394 0.0 -0.35699689031147036 5.313497526378358 0.0 -0.456361670930937 4.87233299652305 0.0 -0.4692089144409427 4.83872046143339 0.0 -0.46900160095413257 4.8879797005812735 0.0 -0.46440918647005364 4.917040659143696 0.0 -0.46210023395226874 4.913751458127788 0.0 -0.4639927232695533 4.905175321469039 0.0 -0.45621625514507796 4.882256722856292 0.0 -0.4633000870339122 4.933336346281626 0.0 -0.46782280207729204 4.937142931998441 0.0 -0.4798010627409773 4.970072272982779 0.0 -0.47968776908078176 4.976814077023394 0.0 -0.4654575062523886 4.977972499593826 0.0 -0.4604482983148407 4.955656343735624 0.0 -0.4541563613348613 4.871096006428614 0.0 -0.4624336012392365 4.357062780021916 0.0 -0.4629808932275168 4.356920795606568 0.0 -0.4617816726035149 4.3522450963807735 0.0 -0.46140097579323774 4.346201207090847 0.0 -0.47642428804645226 5.3722434084999655 0.0 -0.4761406973927546 5.371223794101158 0.0 -0.4850457284343799 5.36830343052603 0.0 -0.48742577386278196 5.3459686043267025 0.0 -0.4885571247005163 5.34786590173578 0.0 -0.4887891442247982 5.356214883073166 0.0 -0.49446776982058016 5.353076110305 0.0 -0.4685295765170887 5.372114028288558 0.0 -0.4686594672525732 5.3721238548337125 0.0 -0.47368799754296376 5.369039286498589 0.0 -0.48500710484321574 5.258962324635003 0.0 -0.48359822421475035 5.263834467241526 0.0 -0.48547533164036605 5.279145000790148 0.0 -0.4905125009981609 5.304710084468214 0.0 -0.49060711975144544 5.337157844904795 0.0 -0.49236440442200613 5.335527582922565 0.0 -0.4842523966139287 5.330342888390531 0.0 -0.48673346705602266 5.311614635408851 0.0 -0.48002876725203364 5.257149789539555 0.0 -0.47872240793301146 5.240966043990375 0.0 -0.48197825756239715 5.248440371631314 0.0 -0.5018430572918465 5.3016167097422775 0.0 -0.49880282287501104 5.295272060916845 0.0 -0.5014015237496434 5.288142086169593 0.0 -0.4994483952539257 5.278403097463639 0.0 -0.4980528637116565 5.278094033602765 0.0 -0.47580215348523935 5.137446366805107 0.0 -0.47359840618191934 5.137049042069066 0.0 -0.47371884386264523 5.125118915817111 0.0 -0.4692129439029278 5.117334667178365 0.0 -0.4667900921517242 5.108869002838514 0.0 -0.46271569720360656 5.084096982348995 0.0 -0.4635825774246671 5.067082976317821 0.0 -0.45998972715100456 5.050953148803568 0.0 -0.4589876901272893 5.014724144407082 0.0 -0.46293967365080024 4.99361027580551 0.0 -0.5141118242552727 5.345926008375284 0.0 -0.4418479570270317 5.356372079007464 0.0 -0.4496446723083874 5.374441644814112 0.0 -0.3545088585721079 5.316238417515422 0.0 -0.361158629824066 5.29624614243701 0.0 -0.36254721539270585 5.311283915303901 0.0 -0.3592490278272844 5.315441106899802 0.0 -0.3783186668504466 5.308067423090894 0.0 -0.368288808450332 5.311560466363243 0.0 -0.373543156968498 5.261986778530606 0.0 -0.3750519802868221 5.250223393648069 0.0 -0.37668296600662554 5.253586141083206 0.0 -0.3839913677060463 5.272289379262455 0.0 -0.36454528290808647 5.315101425272125 0.0 -0.39238571529712407 5.287979185293427 0.0 -0.39905512405719895 5.299243883871906 0.0 -0.4021277709608105 5.339885760063034 0.0 -0.39461217267908194 5.29091763135542 0.0 -0.3987779962400068 5.264816915535313 0.0 -0.3971635181670101 5.218286669758208 0.0 -0.40327494295115 5.222295683742135 0.0 -0.45067512537495347 5.0064639957333545 0.0 -0.4455340877636507 4.988940580417061 0.0 -0.4356584325672162 4.976173352494792 0.0 -0.43263543064525833 4.976673994982024 0.0 -0.39667189923807517 4.409574071541339 0.0 -0.39263589017222816 4.426769705649345 0.0 -0.4143930438047993 4.568177104649066 0.0 -0.42156481780821725 4.5579653551766315 0.0 -0.4158931887321055 4.5770810615217785 0.0 -0.45669669787853095 4.555647790449438 0.0 -0.4512197158064538 4.465173145158426 0.0 -0.4481602806373155 4.458774874309926 0.0 -0.4544282442449061 4.406504956796557 0.0 -0.4569633021100332 4.377523406360252 0.0 -0.460890311128662 4.3699298206872665 0.0 -0.46438842031319333 4.346569416338665 0.0 -0.46220310827854 4.339881811926018 0.0 -0.4616884968753334 4.341741203811529 0.0 -0.41313995310610874 4.374339737995334 0.0 -0.40236264265350186 4.3851870058941556 0.0 -0.39888255308692583 4.381432811497971 0.0 -0.43352222112551697 4.981644683186821 0.0 -0.42992079466600336 4.982676308210684 0.0 -0.3411333339746115 5.285287434029679 0.0 -0.34200383858166106 5.283870025089269 0.0 -0.3542434359187851 5.279629251320683 0.0 -0.3555143330436782 5.265382214338512 0.0 -0.3602349889269874 5.2354854199771825 0.0 -0.36503832600379515 5.235427805764808 0.0 -0.3694198318906447 5.25429790985177 0.0 -0.33766737675637354 5.304954666076986 0.0 -0.38773199289443383 4.472045577430309 0.0 -0.46865149866425393 5.177202009289694 0.0 -0.4692035295858204 5.188378376028193 0.0 -0.4652316679813326 5.184392938224309 0.0 -0.4644207236528193 5.159508957406608 0.0 -0.4492356133911362 5.126579363691934 0.0 -0.44403887654919166 5.072903484462024 0.0 -0.44360361880224874 5.000387059297831 0.0 -0.4433823851315038 5.073925519275229 0.0 -0.4346511750351423 5.068973748503193 0.0 -0.4316468770925063 5.061278286373847 0.0 -0.43087926299779017 5.049438315538118 0.0 -0.4330787675795965 5.041639309671265 0.0 -0.44505610171317517 5.347295613329385 0.0 -0.4448558586473745 5.340094724936908 0.0 -0.4356945913061826 5.280333652058127 0.0 -0.43614630756877976 5.244410119926771 0.0 -0.4403243323851321 5.248767451034382 0.0 -0.44719507690614296 5.23989626332932 0.0 -0.44860154606626274 5.252279740667424 0.0 -0.47163845778219216 5.198848285470416 0.0 -0.39897002014212724 5.2149934056863545 0.0 -0.4035604098091535 5.2070440726056875 0.0 -0.4094347277141838 5.209680279309991 0.0 -0.4108850604289429 5.20201436913857 0.0 -0.4236449718631118 5.202001140916819 0.0 -0.4266460668970154 5.2136268196427515 0.0 -0.42737298463103385 5.2188116198997765 0.0 -0.42723825030034746 5.218171475571202 0.0 -0.4302970220084719 5.230674407514541 0.0 -0.435034062669512 5.231135709101933 0.0 -0.36855183916621453 5.208471083434338 0.0 -0.36660953354843145 5.206729007966122 0.0 -0.3605217223669767 5.187979923309321 0.0 -0.36242508145014896 5.18110503570479 0.0 -0.3686295778964145 5.194626374964519 0.0 -0.36009829817953604 5.198141340975384 0.0 -0.3715197040068661 5.2115653720659925 0.0 -0.3715876606871794 5.213902622949958 0.0 -0.37011266289498607 5.215501030671282 0.0 -0.37153029131279 5.217715590050932 0.0 -0.37422540461430426 5.222243802691881 0.0 -0.37490547133224145 5.243498174645591 0.0 -0.3799548703437181 5.213740764736559 0.0 -0.38006771400894107 5.166827585700858 0.0 -0.40338864181220097 5.192969614121029 0.0 -0.4005457412511821 5.195118521892094 0.0 -0.3995005948245943 5.163474495045931 0.0 -0.40110594806842803 5.167996626558842 0.0 -0.40174409517784065 5.1713265203263035 0.0 -0.4076517058983798 5.16517071744407 0.0 -0.4008621785446399 5.165503658141196 0.0 -0.4135681406599519 5.133448811269179 0.0 -0.4147538953879548 5.1300528362072075 0.0 -0.4110351642230668 5.164871863582501 0.0 -0.43115340863514495 5.071565763424665 0.0 -0.4293717543578985 5.0495864905521195 0.0 -0.4284298138841197 5.044469121864926 0.0 -0.41639398761585006 4.688681354102642 0.0 -0.45659118327289916 4.573497000177188 0.0 -0.42752158621203645 4.721097850583351 0.0 -0.4245980187154492 4.7179859226561325 0.0 -0.41848083658048985 4.70074518733511 0.0 -0.4159280993267046 4.70280266099888 0.0 -0.4098642370333574 4.678037185162923 0.0 -0.4087845001769652 4.674843903329822 0.0 -0.4057725212732831 4.643001053088425 0.0 -0.40993626112191933 4.609839745937825 0.0 -0.41216432416130705 4.592038966869975 0.0 -0.42352408560769816 4.543734394937912 0.0 -0.4344108141071048 4.510643814274035 0.0 -0.44469161530704815 4.482804823913 0.0 -0.407259728193962 4.678949058164395 0.0 -0.4074026237266635 4.676299093496136 0.0 -0.4022681689968772 4.619781027928928 0.0 -0.4076033772076842 4.57943935526159 0.0 -0.4013198335456281 4.63307837831698 0.0 -0.39708217040001054 4.645161387383064 0.0 -0.39519900697552945 4.594394826674924 0.0 -0.3959109507102556 4.612807138097969 0.0 -0.4009481179414849 4.624392562573515 0.0 -0.3950508550260884 4.5790500242364365 0.0 -0.38784882436757784 4.5789631658317935 0.0 -0.3882876857318133 4.573036713475556 0.0 -0.38450687912505244 4.514278939181722 0.0 -0.42476477649507405 5.038280019766414 0.0 -0.4250115222297798 5.016826483277603 0.0 -0.42230434642942916 4.9972604490082455 0.0 -0.42355764657884387 4.995870272017566 0.0 -0.4230625174910957 4.9750885326395915 0.0 -0.4202803296706902 4.9652187126991 0.0 -0.3493761529754352 5.114763717702058 0.0 -0.35682270076604233 5.116871835432108 0.0 -0.36065345031435175 5.108639551424101 0.0 -0.35802457067210125 5.116702715589321 0.0 -0.3599827452880308 5.121298150282732 0.0 -0.36380234761773833 4.649940083639125 0.0 -0.3678047495664438 4.6266998426520765 0.0 -0.38040486710646826 4.612408682771242 0.0 -0.38666651563461746 4.681606579612686 0.0 -0.38309309177425643 4.702331113785202 0.0 -0.3775725774614851 4.673696210713031 0.0 -0.36324751319072524 4.6708123456434345 0.0 -0.35828169139976607 4.673462652686823 0.0 -0.3615755516653657 4.670434607007176 0.0 -0.42280898145841117 5.116230545142659 0.0 -0.4272605527863422 5.110019690928093 0.0 -0.423315095263819 5.080987680270225 0.0 -0.42756015559850896 5.0854989893339155 0.0 -0.40964393878532096 5.120460901556608 0.0 -0.417039829731214 5.1236081314343 0.0 -0.42180771400023986 5.13031994894571 0.0 -0.42511806599908797 5.160940369062467 0.0 -0.4267653055323722 5.16450915646005 0.0 -0.4229537383776111 5.192098832124774 0.0 -0.4226064235237052 5.192191807855605 0.0 -0.42088691541072887 5.115109987872177 0.0 -0.36210955481766116 5.039674852796188 0.0 -0.36241121388461994 5.069455302292652 0.0 -0.3632823458295477 5.073704743936322 0.0 -0.3638707533862508 5.095920822088436 0.0 -0.36317468854772056 5.1024530282320555 0.0 -0.3568515985209625 5.010973434696339 0.0 -0.3648594636527797 5.077943224514793 0.0 -0.36754862483631184 5.06499515269282 0.0 -0.3696134762799598 5.113490143025581 0.0 -0.37258775273427425 5.118168657829651 0.0 -0.3794090048198932 5.151937434275419 0.0 -0.3817066973139372 5.052076685983347 0.0 -0.3915566968136739 5.1349323595451315 0.0 -0.3932964464441588 5.150040313293026 0.0 -0.385431279881585 5.154974315311514 0.0 -0.38308785842992016 5.157110778852635 0.0 -0.3973354053405445 5.1545365124606635 0.0 -0.39336165089051595 5.027726040251221 0.0 -0.39220858030935407 5.0190681146455915 0.0 -0.3984796455535531 5.051755293784126 0.0 -0.40400287674629 5.0709786982474 0.0 -0.40676278805879723 5.106577923536995 0.0 -0.4085416973796657 5.110405130176742 0.0 -0.42197645240710396 5.078426005455262 0.0 -0.41816541003476304 5.055429576859614 0.0 -0.4155466161126582 5.008557974345963 0.0 -0.417134502551215 4.999637387421275 0.0 -0.4177680884651131 5.00198113254996 0.0 -0.4177760383861534 4.987185593756813 0.0 -0.421382850073133 4.9983579662420325 0.0 -0.41960388876013555 4.871810493989552 0.0 -0.41340675865525256 4.824705423755342 0.0 -0.4056390771790336 4.760160718112679 0.0 -0.40801058314383093 4.715058316096925 0.0 -0.4061807962213757 4.705586139005069 0.0 -0.40144689224863395 4.6810347202484826 0.0 -0.40781787015459314 4.681592549574117 0.0 -0.3981451381176412 4.664903429404978 0.0 -0.3869827256586364 4.6865413239575355 0.0 -0.3982888878110119 4.669671211056117 0.0 -0.39138735432475863 4.660337888609512 0.0 -0.3830826719389944 4.698080077592271 0.0 -0.41630045511099023 4.974007512671372 0.0 -0.41870806194513716 4.9623962147533724 0.0 -0.41438360752485925 4.951957096781508 0.0 -0.41146682536797957 4.954177008221625 0.0 -0.40893431183448375 4.8778159324150225 0.0 -0.3719613466006439 4.725867730105583 0.0 -0.37208895790141555 4.719189921196956 0.0 -0.37924125196217884 4.704212950911765 0.0 -0.3715224855653368 4.715288174995324 0.0 -0.372422289407293 4.724068523806121 0.0 -0.3600656204321968 4.687575834100615 0.0 -0.36285697958905655 4.681019922258434 0.0 -0.36003261813613113 4.626201885643542 0.0 -0.36114594520903903 4.624841153156864 0.0 -0.3630447962793591 4.6771652965844925 0.0 -0.3599985140561164 4.645029757881793 0.0 -0.40053840662581014 5.024365939197238 0.0 -0.4047112409745947 5.015197561595972 0.0 -0.40421964105094277 5.024839883481481 0.0 -0.4078269788950804 5.009756621412292 0.0 -0.40359323690765464 4.988693265198489 0.0 -0.40852320928974584 4.9807627254959685 0.0 -0.37329274846917293 5.003892936625878 0.0 -0.37342444588029294 5.067136431392255 0.0 -0.35595113588413496 4.952566371198514 0.0 -0.34714859547769394 4.915361302380064 0.0 -0.3455339384319011 4.885420984282829 0.0 -0.345363400791835 4.84808556661706 0.0 -0.36877894817078155 4.9653956203752 0.0 -0.37382468252871126 4.995541964036942 0.0 -0.38084059692395045 5.016838807305526 0.0 -0.38152833312871604 5.031152635324477 0.0 -0.3800966819646466 5.036233286020068 0.0 -0.3775445364654604 5.01297556852228 0.0 -0.3788030644723241 4.996219773399637 0.0 -0.38159881381928396 4.9878402127674955 0.0 -0.3878632150231967 5.007617480747411 0.0 -0.40103313383724676 4.927331359511695 0.0 -0.40086471140418395 4.938844092798486 0.0 -0.40280422311429176 4.943315291682959 0.0 -0.4047054133332696 4.957211916694303 0.0 -0.4104003849568884 4.929726577556644 0.0 -0.4093908706991115 4.924313772765817 0.0 -0.41794466907686956 4.948290074863795 0.0 -0.40558433382529213 4.89298193348869 0.0 -0.4052082644649169 4.895017391721988 0.0 -0.4064761071635673 4.8801892238743285 0.0 -0.40834990695739665 4.873466588386753 0.0 -0.40680706937355954 4.8834487089697145 0.0 -0.4146674702211699 4.868209939711217 0.0 -0.39754079256905944 4.855403457030688 0.0 -0.39611235905853004 4.833682914772211 0.0 -0.393221290514224 4.830313122811192 0.0 -0.38781372512775836 4.8213862347361305 0.0 -0.3908149414340865 4.8066056714954115 0.0 -0.38839865520187317 4.804521942665815 0.0 -0.3897628553862832 4.807299079985128 0.0 -0.3760366192123822 4.777881104030675 0.0 -0.3671672531244203 4.763272636634539 0.0 -0.3415097915430684 4.831123067282716 0.0 -0.33716517409143754 4.822390588604482 0.0 -0.33989558286645005 4.815126296985068 0.0 -0.3444542303736929 4.814040267262012 0.0 -0.3486959949376777 4.832843736809667 0.0 -0.37273417995234603 4.889642149339423 0.0 -0.3740279289593219 4.910930208551616 0.0 -0.374674742289911 4.924169655242331 0.0 -0.3733500871015738 4.933215435298412 0.0 -0.3775365102686688 4.906845117701482 0.0 -0.37946709200863443 4.900657645650599 0.0 -0.37318782571700093 4.9200625034721135 0.0 -0.36444226616289654 4.625926287624379 0.0 -0.3624858444406856 4.595314859397074 0.0 -0.3626542326726618 4.59247003937769 0.0 -0.35616060539164135 4.508821927416292 0.0 -0.3537675542721222 4.496516014690104 0.0 -0.3343135795144322 4.397684566273556 0.0 -0.3353102900642207 4.357056974710732 0.0 -0.35400610690562084 4.4924077806633145 0.0 -0.34586435195962184 4.454916977682216 0.0 -0.33796048460110245 4.430158590178603 0.0 -0.33246712515107774 4.402187874007969 0.0 -0.32389707119399386 4.3528036600062245 0.0 -0.3298978593560296 4.356062798827218 0.0 -0.32717568140379144 4.395080063261025 0.0 -0.3097575566473222 4.3483668514409555 0.0 -0.3110423183372265 4.341879434746461 0.0 -0.3264157254596423 4.74042675687203 0.0 -0.3328349394461556 4.711489650620534 0.0 -0.3423718235663573 4.773851801104699 0.0 -0.3321567411411033 4.77471442706103 0.0 -0.3373036230615125 4.801006240697074 0.0 -0.34056819178073683 4.80154640326472 0.0 -0.3813693176931085 4.894882317019526 0.0 -0.3830252491628196 4.888607888277389 0.0 -0.38298670595726575 4.896590290486673 0.0 -0.3937391363537189 4.9287613638957435 0.0 -0.3928634185005393 4.875643350624355 0.0 -0.38293946695650494 4.855317072139876 0.0 -0.38244654762426117 4.8611861346357115 0.0 -0.3854783811252307 4.793373640821031 0.0 -0.3870873756138818 4.790831833978961 0.0 -0.385145995819874 4.780134106223048 0.0 -0.37069194398503086 4.709354578943616 0.0 -0.37365341187747353 4.688548121734679 0.0 -0.371485216502032 4.665485375051411 0.0 -0.35974643286715646 4.787762511812335 0.0 -0.35281680860938675 4.785164786268877 0.0 -0.35012097797454855 4.641991887341538 0.0 -0.3493570899591109 4.661818130684846 0.0 -0.36568774220340755 4.818899824306746 0.0 -0.3728322179662097 4.879633909263591 0.0 -0.37505958045517934 4.862710695487495 0.0 -0.375885156202659 4.879061405414695 0.0 -0.35439708289025457 4.563507942679334 0.0 -0.35454066414565893 4.557681820302274 0.0 -0.350754763600169 4.555556556830268 0.0 -0.34486502605628927 4.509062626530836 0.0 -0.33690132778050225 4.468720453925781 0.0 -0.3348722030798192 4.446980756101583 0.0 -0.342925621941575 4.463074192631608 0.0 -0.3044067298121525 4.362277794608888 0.0 -0.3037434460239696 4.359856341316992 0.0 -0.3020142958669685 4.353552516098655 0.0 -0.30400966550801706 4.351558327169124 0.0 -0.3074435643952217 4.355585192623626 0.0 -0.30998802855028035 4.347462070837074 0.0 -0.3063474591979718 4.336468022877188 0.0 -0.2857209244947308 4.306938459088876 0.0 -0.26001475686105746 4.247614304621509 0.0 -0.25795934650280544 4.228907852204755 0.0 -0.3025977213102248 4.3421434600787725 0.0 -0.2916347639318908 4.325509666102252 0.0 -0.32750796559