<?xml version="1.0" ?>
<VTKFile type="UnstructuredGrid" version="0.1" byte_order="LittleEndian">
<UnstructuredGrid>
<Piece NumberOfPoints="1500" NumberOfCells="1404">
<Points>
<DataArray type="Float32" format="ascii" NumberOfComponents="3">0.0149999997 0.0299999993 0.0 0.0149999997 0.0401869528 0.0 0.00973947905 0.0450999998 0.0 0.0 0.0450999998 0.0 0.0 0.0299999993 0.0 0.0149999997 0.0500130467 0.0 0.0149999997 0.0599999987 0.0 0.0 0.0599999987 0.0 0.0299999993 0.0299999993 0.0 0.0299999993 0.0450999998 0.0 0.0195885208 0.0450999998 0.0 0.0299999993 0.0599999987 0.0 0.0 0.0 0.0 0.0299999993 0.0 0.0 0.0299999993 0.0900000036 0.0 0.0 0.0900000036 0.0 0.00187499996 0.0299999993 0.0 0.00374999992 0.0299999993 0.0 0.00562500022 0.0299999993 0.0 0.00749999983 0.0299999993 0.0 0.00937500037 0.0299999993 0.0 0.0112500004 0.0299999993 0.0 0.0131249996 0.0299999993 0.0 0.0149999997 0.0309388097 0.0 0.0149999997 0.0315993913 0.0 0.0149999997 0.0322599746 0.0 0.0149999997 0.0329205543 0.0 0.0149999997 0.0335811377 0.0 0.0149999997 0.0342417173 0.0 0.0149999997 0.0349023007 0.0 0.0149999997 0.0355628803 0.0 0.0149999997 0.0362234637 0.0 0.0149999997 0.0368840471 0.0 0.0149999997 0.0375446267 0.0 0.0149999997 0.0382052101 0.0 0.0149999997 0.0388657898 0.0 0.0149999997 0.0395263731 0.0 0.0145518444 0.0401767567 0.0 0.0141046178 0.0402073525 0.0 0.0136620263 0.0402784906 0.0 0.0132277375 0.0403895788 0.0 0.0128053501 0.0405397005 0.0 0.012398364 0.0407276079 0.0 0.0120101506 0.0409517474 0.0 0.0116439275 0.0412102602 0.0 0.0113027301 0.0415010042 0.0 0.0109893847 0.0418215692 0.0 0.0107064871 0.042169299 0.0 0.0104563832 0.0425413139 0.0 0.0102411434 0.0429345332 0.0 0.010062553 0.0433456935 0.0 0.00992209092 0.0437713899 0.0 0.00982092042 0.0442080945 0.0 0.00975988153 0.0446521938 0.0 0.00910791382 0.0450999998 0.0 0.00847634859 0.0450999998 0.0 0.0078447843 0.0450999998 0.0 0.00721321953 0.0450999998 0.0 0.00658165431 0.0450999998 0.0 0.00595008954 0.0450999998 0.0 0.00531852478 0.0450999998 0.0 0.00468696002 0.0450999998 0.0 0.00405539526 0.0450999998 0.0 0.00342383026 0.0450999998 0.0 0.0027922655 0.0450999998 0.0 0.00216070074 0.0450999998 0.0 0.00152913586 0.0450999998 0.0 0.000897571037 0.0450999998 0.0 0.0 0.0438416675 0.0 0.0 0.0425833352 0.0 0.0 0.0413249992 0.0 0.0 0.0400666669 0.0 0.0 0.0388083346 0.0 0.0 0.0375499986 0.0 0.0 0.0362916663 0.0 0.0 0.035033334 0.0 0.0 0.0337750018 0.0 0.0 0.0325166658 0.0 0.0 0.0312583335 0.0 0.00975988153 0.0455478057 0.0 0.00982092042 0.045991905 0.0 0.00992209092 0.0464286096 0.0 0.010062553 0.046854306 0.0 0.0102411434 0.0472654663 0.0 0.0104563832 0.0476586856 0.0 0.0107064871 0.0480307005 0.0 0.0109893847 0.0483784303 0.0 0.0113027301 0.0486989953 0.0 0.0116439275 0.0489897393 0.0 0.0120101506 0.0492482521 0.0 0.012398364 0.0494723916 0.0 0.0128053501 0.049660299 0.0 0.0132277375 0.0498104207 0.0 0.0136620263 0.0499215089 0.0 0.0141046178 0.049992647 0.0 0.0145518444 0.0500232428 0.0 0.0149999997 0.0506606586 0.0 0.0149999997 0.0513082705 0.0 0.0149999997 0.0519558825 0.0 0.0149999997 0.0526034944 0.0 0.0149999997 0.05325111 0.0 0.0149999997 0.0538987219 0.0 0.0149999997 0.0545463338 0.0 0.0149999997 0.0551939458 0.0 0.0149999997 0.0558415577 0.0 0.0149999997 0.0564891733 0.0 0.0149999997 0.0571367852 0.0 0.0149999997 0.0577843972 0.0 0.0149999997 0.0584320091 0.0 0.0149999997 0.059079621 0.0 0.0131249996 0.0599999987 0.0 0.0112500004 0.0599999987 0.0 0.00937500037 0.0599999987 0.0 0.00749999983 0.0599999987 0.0 0.00562500022 0.0599999987 0.0 0.00374999992 0.0599999987 0.0 0.00187499996 0.0599999987 0.0 0.0 0.0587583333 0.0 0.0 0.057516668 0.0 0.0 0.0562749989 0.0 0.0 0.0550333336 0.0 0.0 0.0537916683 0.0 0.0 0.0525499992 0.0 0.0 0.0513083339 0.0 0.0 0.0500666648 0.0 0.0 0.0488249995 0.0 0.0 0.0475833341 0.0 0.0 0.0463416651 0.0 0.0195713751 0.0446894132 0.0 0.0195200555 0.0442816839 0.0 0.0194349196 0.0438796543 0.0 0.0193165597 0.0434861258 0.0 0.0191658027 0.0431038328 0.0 0.0189836938 0.0427354388 0.0 0.0187715068 0.0423835143 0.0 0.0185307153 0.0420505032 0.0 0.0182629973 0.0417387299 0.0 0.0179702155 0.0414503627 0.0 0.0176544115 0.041187413 0.0 0.0173177831 0.0409517065 0.0 0.0169626754 0.0407448858 0.0 0.0165915582 0.0405683964 0.0 0.0162070207 0.040423464 0.0 0.0158117376 0.0403110944 0.0 0.0154084601 0.0402320772 0.0 0.0168750007 0.0299999993 0.0 0.0187500007 0.0299999993 0.0 0.0206250008 0.0299999993 0.0 0.0225000009 0.0299999993 0.0 0.0243749991 0.0299999993 0.0 0.0262499992 0.0299999993 0.0 0.0281249993 0.0299999993 0.0 0.0299999993 0.0312583335 0.0 0.0299999993 0.0325166658 0.0 0.0299999993 0.0337750018 0.0 0.0299999993 0.035033334 0.0 0.0299999993 0.0362916663 0.0 0.0299999993 0.0375499986 0.0 0.0299999993 0.0388083346 0.0 0.0299999993 0.0400666669 0.0 0.0299999993 0.0413249992 0.0 0.0299999993 0.0425833352 0.0 0.0299999993 0.0438416675 0.0 0.0290404987 0.0450999998 0.0 0.0283653568 0.0450999998 0.0 0.0276902169 0.0450999998 0.0 0.0270150751 0.0450999998 0.0 0.0263399333 0.0450999998 0.0 0.0256647933 0.0450999998 0.0 0.0249896515 0.0450999998 0.0 0.0243145097 0.0450999998 0.0 0.0236393698 0.0450999998 0.0 0.0229642279 0.0450999998 0.0 0.0222890861 0.0450999998 0.0 0.0216139443 0.0450999998 0.0 0.0209388044 0.0450999998 0.0 0.0202636626 0.0450999998 0.0 0.0281249993 0.0599999987 0.0 0.0262499992 0.0599999987 0.0 0.0243749991 0.0599999987 0.0 0.0225000009 0.0599999987 0.0 0.0206250008 0.0599999987 0.0 0.0187500007 0.0599999987 0.0 0.0168750007 0.0599999987 0.0 0.0154084601 0.049967926 0.0 0.0158117376 0.0498889051 0.0 0.0162070207 0.0497765355 0.0 0.0165915582 0.0496316031 0.0 0.0169626754 0.0494551137 0.0 0.0173177831 0.049248293 0.0 0.0176544115 0.0490125902 0.0 0.0179702155 0.0487496369 0.0 0.0182629973 0.0484612696 0.0 0.0185307153 0.0481494963 0.0 0.0187715068 0.0478164889 0.0 0.0189836938 0.0474645607 0.0 0.0191658027 0.0470961705 0.0 0.0193165597 0.0467138775 0.0 0.0194349196 0.0463203453 0.0 0.0195200555 0.0459183156 0.0 0.0195713751 0.0455105864 0.0 0.0299999993 0.0463416651 0.0 0.0299999993 0.0475833341 0.0 0.0299999993 0.0488249995 0.0 0.0299999993 0.0500666648 0.0 0.0299999993 0.0513083339 0.0 0.0299999993 0.0525499992 0.0 0.0299999993 0.0537916683 0.0 0.0299999993 0.0550333336 0.0 0.0299999993 0.0562749989 0.0 0.0299999993 0.057516668 0.0 0.0299999993 0.0587583333 0.0 0.0 0.0270000007 0.0 0.0 0.0240000002 0.0 0.0 0.0209999997 0.0 0.0 0.0179999992 0.0 0.0 0.0149999997 0.0 0.0 0.0120000001 0.0 0.0 0.00899999961 0.0 0.0 0.00600000005 0.0 0.0 0.00300000003 0.0 0.00187499996 0.0 0.0 0.00374999992 0.0 0.0 0.00562500022 0.0 0.0 0.00749999983 0.0 0.0 0.00937500037 0.0 0.0 0.0112500004 0.0 0.0 0.0131249996 0.0 0.0 0.0149999997 0.0 0.0 0.0168750007 0.0 0.0 0.0187500007 0.0 0.0 0.0206250008 0.0 0.0 0.0225000009 0.0 0.0 0.0243749991 0.0 0.0 0.0262499992 0.0 0.0 0.0281249993 0.0 0.0 0.0299999993 0.00300000003 0.0 0.0299999993 0.00600000005 0.0 0.0299999993 0.00899999961 0.0 0.0299999993 0.0120000001 0.0 0.0299999993 0.0149999997 0.0 0.0299999993 0.0179999992 0.0 0.0299999993 0.0209999997 0.0 0.0299999993 0.0240000002 0.0 0.0299999993 0.0270000007 0.0 0.0299999993 0.063000001 0.0 0.0299999993 0.0659999996 0.0 0.0299999993 0.0689999983 0.0 0.0299999993 0.0719999969 0.0 0.0299999993 0.075000003 0.0 0.0299999993 0.0780000016 0.0 0.0299999993 0.0810000002 0.0 0.0299999993 0.0839999989 0.0 0.0299999993 0.0869999975 0.0 0.0281249993 0.0900000036 0.0 0.0262499992 0.0900000036 0.0 0.0243749991 0.0900000036 0.0 0.0225000009 0.0900000036 0.0 0.0206250008 0.0900000036 0.0 0.0187500007 0.0900000036 0.0 0.0168750007 0.0900000036 0.0 0.0149999997 0.0900000036 0.0 0.0131249996 0.0900000036 0.0 0.0112500004 0.0900000036 0.0 0.00937500037 0.0900000036 0.0 0.00749999983 0.0900000036 0.0 0.00562500022 0.0900000036 0.0 0.00374999992 0.0900000036 0.0 0.00187499996 0.0900000036 0.0 0.0 0.0869999975 0.0 0.0 0.0839999989 0.0 0.0 0.0810000002 0.0 0.0 0.0780000016 0.0 0.0 0.075000003 0.0 0.0 0.0719999969 0.0 0.0 0.0689999983 0.0 0.0 0.0659999996 0.0 0.0 0.063000001 0.0 0.00240605418 0.0317476094 0.0 0.0132285897 0.0308372527 0.0 0.0114639541 0.0308285281 0.0 0.00970989279 0.0308664478 0.0 0.00796741433 0.030946292 0.0 0.00622726884 0.0310834199 0.0 0.00444168784 0.0313186944 0.0 0.0115238708 0.0404538177 0.0 0.0110589247 0.0399643853 0.0 0.0105802957 0.0394543298 0.0 0.0100896806 0.0389274582 0.0 0.00958756451 0.0383866653 0.0 0.00907252356 0.0378334895 0.0 0.00854044221 0.0372676216 0.0 0.00798357651 0.0366861634 0.0 0.00738931261 0.0360825956 0.0 0.00673822826 0.0354451761 0.0 0.00600026548 0.0347540006 0.0 0.00512524834 0.0339741185 0.0 0.00401390065 0.0330347866 0.0 0.000793838175 0.0438955426 0.0 0.000772442494 0.0426918976 0.0 0.000783006602 0.0414899141 0.0 0.000811753387 0.0402907245 0.0 0.000856733182 0.0390956625 0.0 0.000921554572 0.037906155 0.0 0.00101479655 0.0367233306 0.0 0.00115271518 0.0355465077 0.0 0.00136729016 0.0343677737 0.0 0.00172855402 0.0331514254 0.0 0.0133339632 0.0315873995 0.0 0.0134397261 0.0323022977 0.0 0.0135442559 0.032998085 0.0 0.0136464294 0.0336812399 0.0 0.013745822 0.0343553573 0.0 0.013842525 0.0350228548 0.0 0.0139368745 0.0356853306 0.0 0.0140292263 0.0363436677 0.0 0.0141198216 0.0369979888 0.0 0.0142087657 0.0376475193 0.0 0.0142960874 0.0382902175 0.0 0.0143820234 0.0389216021 0.0 0.0144678745 0.0395311117 0.0 0.0116815548 0.0316202343 0.0 0.011899055 0.0323765688 0.0 0.0121123437 0.033103589 0.0 0.0123189483 0.0338073969 0.0 0.0125182495 0.0344934613 0.0 0.0127108386 0.0351662561 0.0 0.0128977867 0.0358290039 0.0 0.0130801173 0.0364835784 0.0 0.0132585336 0.0371304527 0.0 0.0134333326 0.0377685912 0.0 0.0136044715 0.0383952036 0.0 0.0137717454 0.0390052013 0.0 0.0139350798 0.0395906046 0.0 0.0100520272 0.0317044854 0.0 0.010392216 0.0325013697 0.0 0.0107216369 0.0332574546 0.0 0.01103618 0.0339790136 0.0 0.0113357538 0.0346737355 0.0 0.0116223767 0.0353484601 0.0 0.011898635 0.0360082686 0.0 0.0121667851 0.0366562307 0.0 0.0124283545 0.03
[...]
<PointData>
<DataArray Name="displ" NumberOfComponents="3" type="Float32" format="ascii">-4.5908891619905134e-05 0.0005544628421454717 0.0 -6.247890684700796e-05 0.000571834200825049 0.0 8.710849514324157e-06 0.0007107190701927475 0.0 -1.7769750481904448e-06 0.0007106694111225656 0.0 -2.5304657179672674e-05 0.0005951940448536755 0.0 -6.8219307171071e-05 0.0008699525062790617 0.0 -6.761908720555482e-05 0.0008846625033589854 0.0 -5.522836099305531e-05 0.0008272613148016428 0.0 -6.516869309430361e-05 0.0006190368166313434 0.0 -0.00011330222557758184 0.0007324090076423387 0.0 -0.00014803361696708842 0.000701122000403197 0.0 -8.516212914262954e-05 0.0008437831554095552 0.0 -2.5251734832560958e-06 0.00040961413881972474 0.0 -3.500195618754646e-05 0.00042420688911952057 0.0 -0.00010080558430657981 0.0010456543910977527 0.0 -6.321962760681896e-05 0.00102666093465228 0.0 -3.0157002721065092e-05 0.0005931816229390003 0.0 -3.131896047830746e-05 0.0005913159167435286 0.0 -3.447889855034704e-05 0.0005863517869440708 0.0 -3.938332714672207e-05 0.0005788684979172204 0.0 -4.221953832716881e-05 0.0005698600928769718 0.0 -4.296891166347549e-05 0.0005585098156344749 0.0 -4.6372584906318396e-05 0.0005540878889167334 0.0 -4.802958148535575e-05 0.0005597610748769729 0.0 -4.697043777372045e-05 0.0005568241522292025 0.0 -4.9059428642166614e-05 0.0005608638577148799 0.0 -4.928934887070559e-05 0.0005629619035883593 0.0 -5.042574970143982e-05 0.0005669974894514947 0.0 -5.1723934592503213e-05 0.0005675463986102763 0.0 -5.003249730005285e-05 0.000567022799960423 0.0 -5.120670199754556e-05 0.0005651481574252004 0.0 -5.0107127210558574e-05 0.0005693175362488283 0.0 -5.1839393285269595e-05 0.0005648549995311984 0.0 -5.146805796165028e-05 0.000569272135455597 0.0 -5.494901264845616e-05 0.0005699083693745031 0.0 -4.8786065969537216e-05 0.0005682542673430233 0.0 -5.934107626597511e-05 0.0005613038792687953 0.0 -4.3143979381281305e-05 0.0005712026104019842 0.0 -3.1516369509696246e-05 0.0005700609394795886 0.0 -2.9062693757886338e-05 0.0005676939321700992 0.0 -4.618474528244003e-05 0.000577864850909697 0.0 -2.6818980447967862e-05 0.0005675413474750926 0.0 -3.3344986491180666e-05 0.0005953499974687217 0.0 -2.227749995604415e-05 0.0005752386138722114 0.0 -5.271943079820446e-06 0.0005711817225958228 0.0 -1.575849166499107e-05 0.0005976707192369502 0.0 -8.921298853021018e-06 0.0006021772917428605 0.0 -8.785698844945815e-06 0.0006086894748683112 0.0 -4.849392456381971e-06 0.0006168707017250759 0.0 -1.0863022171031191e-05 0.0006171824223227683 0.0 -1.65984580951655e-05 0.0006330553626076653 0.0 5.425083565623246e-06 0.000604691104061336 0.0 -1.780890887566046e-05 0.0006809261184791835 0.0 -5.368379246799418e-06 0.0006994342531415112 0.0 -2.216902406328609e-05 0.0007139249178625722 0.0 -5.236254337597552e-06 0.0007188378208239906 0.0 -1.5768862177590514e-05 0.0007176461381922984 0.0 -6.603257135277814e-06 0.0007099213522327536 0.0 -1.0232273159453613e-05 0.000718773189272622 0.0 -1.0036146114420334e-05 0.0007120934683757068 0.0 -1.2669077691610178e-05 0.0007135594956469885 0.0 -8.007591932454934e-06 0.0007116530203495838 0.0 -7.95315833918578e-06 0.00071096543188013 0.0 -6.682107701330552e-06 0.0007086608712644236 0.0 -7.170309569550155e-06 0.0007114734054104035 0.0 -4.7653481402500505e-06 0.0007090474822651412 0.0 -2.9762214037241346e-06 0.0007128980034808967 0.0 -6.153785360897332e-06 0.000706890603418392 0.0 -2.7396002428211593e-06 0.0007027427503018908 0.0 -6.459590125980071e-06 0.0006945502437227716 0.0 -8.63260924477245e-06 0.0006848393192164436 0.0 -1.292335661939429e-05 0.0006780876690457299 0.0 -1.9026086351208756e-05 0.000665710502997627 0.0 -2.4825660742618677e-05 0.0006574897807231547 0.0 -2.430257412739932e-05 0.0006468519003294307 0.0 -2.860301973057991e-05 0.0006344237278921008 0.0 -2.652990868975362e-05 0.0006244354251156477 0.0 -2.5621468899271835e-05 0.0006156382018109032 0.0 -2.823690286853913e-05 0.0006034776633936199 0.0 2.7216917199734357e-05 0.0008170208945843911 0.0 -1.8127493217749294e-06 0.0008137228636680878 0.0 1.2684047746275875e-05 0.0008019264026246903 0.0 -1.321977914508577e-06 0.0008368100983224625 0.0 1.3305167524461265e-06 0.0008263248371351651 0.0 -9.88566281063245e-06 0.0008157580090463611 0.0 -2.045868977364217e-05 0.0008270084770454047 0.0 -1.9468537540612998e-05 0.0008382661053235442 0.0 -2.385558973112556e-05 0.0008404533664237735 0.0 -3.842085576612711e-05 0.0008451957770487027 0.0 -3.199615158438224e-05 0.0008472209095832273 0.0 -4.388299305885316e-05 0.000854933259413882 0.0 -3.912070851625685e-05 0.0008578817438567569 0.0 -5.6245425023107334e-05 0.0008655433463163197 0.0 -5.072732736587895e-05 0.0008652082774055209 0.0 -6.0317916298907937e-05 0.0008699982366250162 0.0 -5.7772888271317864e-05 0.0008662621069249536 0.0 -6.702492441184843e-05 0.000868451193882194 0.0 -6.4180661632368e-05 0.000868501994674916 0.0 -6.779125111503556e-05 0.0008710077570625125 0.0 -6.606418961875579e-05 0.0008680419439498836 0.0 -6.797453800287891e-05 0.0008707168576906039 0.0 -6.54779367935225e-05 0.0008665194420543541 0.0 -6.52165348855782e-05 0.0008707730049687617 0.0 -6.70661337152146e-05 0.0008710785331162552 0.0 -6.685707996035378e-05 0.0008688294393153824 0.0 -6.440784830169305e-05 0.0008792617274306895 0.0 -6.90639199134006e-05 0.0008781928097998345 0.0 -6.823848610220923e-05 0.0008737911442779024 0.0 -6.898702609121627e-05 0.0008807641528521745 0.0 -6.942524861268723e-05 0.0008802956064451427 0.0 -6.876820918111097e-05 0.0008826914937857389 0.0 -6.677916105814739e-05 0.0008755779230602994 0.0 -6.903977365734999e-05 0.0008623844608402674 0.0 -6.469931678199182e-05 0.0008507171168953631 0.0 -6.295933079730488e-05 0.0008417740906427146 0.0 -6.14973791640569e-05 0.0008352367651454945 0.0 -5.718113590980124e-05 0.0008285983451552327 0.0 -5.408529532392231e-05 0.0008146592974903424 0.0 -4.96866766285619e-05 0.000809786523372338 0.0 -5.036793110834046e-05 0.000794530653606212 0.0 -4.950546890109508e-05 0.0007859341041676293 0.0 -4.41759946260925e-05 0.0007728887405269321 0.0 -3.55511659244011e-05 0.0007663578719842574 0.0 -3.530944748801824e-05 0.0007537456504285986 0.0 -2.3404176275707723e-05 0.0007409561788746113 0.0 -1.2440198824623774e-05 0.0007339624629292108 0.0 -8.596724920092255e-06 0.0007242973408000705 0.0 -8.102888015063899e-06 0.0007182879338128031 0.0 -0.00012237930447553632 0.0007239743654986546 0.0 -9.503835427935189e-05 0.0007126874010345535 0.0 -0.0001363543398254265 0.0006519789909461857 0.0 -9.305889709353999e-05 0.0006669088989680194 0.0 -9.964471817211075e-05 0.000639548731499116 0.0 -0.00010906272391315602 0.0006254048092390202 0.0 -0.00010483426059608805 0.0006096481250323827 0.0 -9.784607750639908e-05 0.000617999923171094 0.0 -9.811687401680132e-05 0.0005962355349382232 0.0 -8.97218351857982e-05 0.0006023708466610722 0.0 -9.057617202600024e-05 0.000597116831414437 0.0 -8.06121196557976e-05 0.0005916593051442825 0.0 -7.951932092477472e-05 0.0005791384532523895 0.0 -7.64477308905577e-05 0.0005831512589085843 0.0 -6.608763906224304e-05 0.0005738196485440677 0.0 -6.634787897771319e-05 0.0005751517379035013 0.0 -4.982075032701875e-05 0.0005650434493909885 0.0 -4.906173452215352e-05 0.0005615194911935091 0.0 -4.995355570796765e-05 0.0005700126655069246 0.0 -5.19972291286842e-05 0.0005854996676082335 0.0 -5.490531151542427e-05 0.0005970859814237836 0.0 -5.849682961521337e-05 0.0006059513319568869 0.0 -6.0139108962219796e-05 0.0006122049782497214 0.0 -6.25385103625404e-05 0.0006171619268641668 0.0 -6.804084307450365e-05 0.0006283998786503199 0.0 -7.08563066594041e-05 0.0006426526044526734 0.0 -7.11159894780397e-05 0.0006437313318856867 0.0 -7.576546053604734e-05 0.0006635497869076984 0.0 -8.010443045983114e-05 0.0006723132990447795 0.0 -8.290909314255393e-05 0.0006839900855096054 0.0 -8.633180239428675e-05 0.0006933232475492123 0.0 -9.576758713912323e-05 0.0007134448398220287 0.0 -0.00010141463612064456 0.000700918655834732 0.0 -0.00010722025765091093 0.000710380640949941 0.0 -0.00011339147615217612 0.0007149315634297676 0.0 -0.00011117839335932665 0.0007312819966471951 0.0 -0.00010951553700920927 0.0007316888773039613 0.0 -0.00011025416483515126 0.0007264174626225043 0.0 -0.00010884037902785184 0.0007219752206473274 0.0 -0.00011107787690205624 0.0007346040340850038 0.0 -0.00010765533556692367 0.0007238982661027317 0.0 -0.00011116783622846401 0.0007268772840825184 0.0 -0.0001042602106244141 0.0007266358482454396 0.0 -0.00010201879218286551 0.0007210982880619021 0.0 -0.00010125990684430711 0.0007262926177839125 0.0 -0.00010581797656383406 0.000724721662555626 0.0 -0.00010833132052741021 0.0007307199071713314 0.0 -0.00010163034291178283 0.0007219267816895145 0.0 -9.468183070006659e-05 0.0007276986341338892 0.0 -8.2874276302527e-05 0.0008437604973721907 0.0 -7.87378793566376e-05 0.0008451333710425319 0.0 -7.672731665911677e-05 0.000847051573806384 0.0 -7.447349984260087e-05 0.0008531310077572364 0.0 -7.155179027641574e-05 0.0008614797630231624 0.0 -7.041533251447817e-05 0.0008721312167827571 0.0 -6.946257840727083e-05 0.0008798366577728582 0.0 -5.943934050873129e-05 0.0008736244746955409 0.0 -8.108151730413222e-05 0.0008651422965513473 0.0 -7.062391200202818e-05 0.0008667876351183304 0.0 -7.412571249404311e-05 0.0008605486102398485 0.0 -8.795578280456381e-05 0.0008605622148334178 0.0 -8.815170537343367e-05 0.0008482421582710284 0.0 -8.799770153210693e-05 0.0008400244356452541 0.0 -8.822243171964848e-05 0.0008467318819552592 0.0 -9.852245768147162e-05 0.0008371762012970311 0.0 -9.482266352173069e-05 0.0008210426328669626 0.0 -0.00010317768453010929 0.000825422958100387 0.0 -9.80173716000377e-05 0.0008066970076759187 0.0 -0.00010585419251576847 0.0007979715703827855 0.0 -0.0001111080117729952 0.0007956396822506581 0.0 -0.00010412671796021877 0.0007454240067959377 0.0 -8.64152524379532e-05 0.0007556689659388146 0.0 -0.00010325383068201037 0.0007345450400463284 0.0 -0.00011344815140640039 0.0007331392814159155 0.0 -0.00011116450513966638 0.0007492670780277802 0.0 -0.000106089708070603 0.0007550073326659986 0.0 -0.00010024280688959508 0.0007729430814720914 0.0 -9.706835839454302e-05 0.000767012907627849 0.0 -9.221216444509674e-05 0.0007838685391869678 0.0 -8.745527424915252e-05 0.0007875504124572496 0.0 -8.757721411316426e-05 0.0008090253857499164 0.0 -8.830040852765802e-05 0.0008155930179168869 0.0 -8.369123468480968e-05 0.0008223135152152321 0.0 -8.536925209542632e-05 0.0008353602854266203 0.0 -2.2224080641894678e-05 0.0005695454639930749 0.0 -2.2377561634797635e-05 0.0005500081504696011 0.0 -1.9678009069798966e-05 0.0005307101778055187 0.0 -1.637408250346985e-05 0.0005099385490405061 0.0 -1.2291656462600506e-05 0.0004921997888272644 0.0 -8.629474419341509e-06 0.00047451138431855663 0.0 -6.911424845126016e-06 0.00045783814680920126 0.0 -6.0258072595092796e-06 0.00044236308016295774 0.0 -2.9825755318804195e-06 0.0004256076275071443 0.0 -2.91908038439987e-06 0.00041304623501849927 0.0 -6.085379304506379e-06 0.0004130994455681746 0.0 -8.524245930085036e-06 0.0004152664939779148 0.0 -1.191825800037722e-05 0.00041287306088733875 0.0 -1.3445513156380669e-05 0.0004125195512875421 0.0 -1.5258880341322747e-05 0.0004116272634305161 0.0 -1.7950768943349094e-05 0.0004128381206273611 0.0 -2.2002603980005577e-05 0.00041305276929470873 0.0 -1.9116316184972913e-05 0.00041344721229638403 0.0 -2.3894389923323547e-05 0.0004151891783551791 0.0 -2.6965076956980295e-05 0.00041725801738816935 0.0 -2.876286714403531e-05 0.000422066442555128 0.0 -2.8920424405644564e-05 0.0004224131455251219 0.0 -3.153114208998051e-05 0.00042526405617314015 0.0 -3.3833321239260046e-05 0.0004255113174404035 0.0 -3.430349282227584e-05 0.0004440013809253397 0.0 -3.883990551755393e-05 0.0004593536140518503 0.0 -4.333477693390203e-05 0.00047589858226058566 0.0 -4.789050988599149e-05 0.0004948084938465868 0.0 -5.057900422748892e-05 0.0005134601353079309 0.0 -5.268417394743512e-05 0.0005351773976882722 0.0 -5.223709217020995e-05 0.0005534496449814216 0.0 -5.4756349949287703e-05 0.0005743223597084344 0.0 -5.8908828342876556e-05 0.0005959302034999177 0.0 -8.306059701384679e-05 0.0008673643639272818 0.0 -8.656880905160112e-05 0.0008887026965338126 0.0 -8.550377458752582e-05 0.0009001746948345364 0.0 -8.946855422456901e-05 0.000928819790695738 0.0 -8.854733765133284e-05 0.0009447088640731985 0.0 -9.31892429693009e-05 0.0009615666842863942 0.0 -9.262981160743936e-05 0.0009829975775504111 0.0 -9.812514223325097e-05 0.0010053223265758936 0.0 -0.00010050925264451312 0.0010242892061173563 0.0 -9.863638295893431e-05 0.0010457153601919511 0.0 -9.591914269642128e-05 0.0010424821051681972 0.0 -9.484852419952612e-05 0.0010424138956792793 0.0 -9.118658194701788e-05 0.0010406232570740767 0.0 -8.977546569800522e-05 0.0010399646587778732 0.0 -8.538538523167128e-05 0.0010388111987468705 0.0 -8.550806060404245e-05 0.0010380747737170953 0.0 -8.159589838855435e-05 0.0010375900225975702 0.0 -7.74306136813131e-05 0.0010364695739012277 0.0 -7.627951157385811e-05 0.0010366063636546392 0.0 -7.426141239431977e-05 0.0010349724421762753 0.0 -7.069281896634916e-05 0.0010342000972948257 0.0 -7.132963155813983e-05 0.001031886058780653 0.0 -6.75019600103127e-05 0.0010313097213454662 0.0 -6.53850998617954e-05 0.001030262061217859 0.0 -6.199217675592192e-05 0.0010128727797311368 0.0 -6.384184164595478e-05 0.0009884726560159672 0.0 -6.423444152655624e-05 0.0009747321998606433 0.0 -6.281266185923465e-05 0.0009560022903782875 0.0 -6.002551362198694e-05 0.0009367079544717629 0.0 -5.856461775133847e-05 0.0009162228595022175 0.0 -5.874377982529159e-05 0.0008950715604185934 0.0 -5.763994989237501e-05 0.0008706950785396279 0.0 -5.7475182481328206e-05 0.0008480252808300936 0.0 -3.062606975016743e-05 0.0006054927612332908 0.0 -4.464935932841566e-05 0.000557859757343914 0.0 -4.364711999880356e-05 0.0005647009932689328 0.0 -4.332471965641658e-05 0.0005718774359372008 0.0 -3.89142086962377e-05 0.0005833061451202248 0.0 -3.6801560454713525e-05 0.0005921258568055375 0.0 -3.5586002981581895e-05 0.0005971028762328836 0.0 -3.266608508414999e-05 0.0005863826580060728 0.0 -3.0932621401516954e-05 0.0005986047978778358 0.0 -4.115594124611846e-05 0.0005983891315628072 0.0 -4.222368583637193e-05 0.0006072409004365759 0.0 -3.7934791102822946e-05 0.0006163621655206529 0.0 -4.192976133619335e-05 0.0006238837886731246 0.0 -3.761220526375084e-05 0.0006252102701298786 0.0 -3.899324293780502e-05 0.0006210994889532536 0.0 -4.058179500303065e-05 0.0006212022865628868 0.0 -3.872891640627716e-05 0.0006210873026991062 0.0 -3.8500011841399444e-05 0.0006194640879730708 0.0 -3.48542166114182e-05 0.0006155470042969177 0.0 -3.5944892048263544e-05 0.0006109535911211554 0.0 -3.3964067952810574e-06 0.0007014388690971025 0.0 -6.4142413295002355e-06 0.0006934478662227487 0.0 -6.439242555210688e-06 0.0006857486408773756 0.0 -1.0406211512886942e-05 0.0006740605469287208 0.0 -1.7504977995085653e-05 0.0006660444674251881 0.0 -1.883252945537173e-05 0.0006589322909795772 0.0 -2.571421540584079e-05 0.000643642884517067 0.0 -2.5856147237471758e-05 0.0006393364346986455 0.0 -2.7567365633880403e-05 0.0006273792191990038 0.0 -3.105954498988135e-05 0.0006169107721390869 0.0 -4.629813064365182e-05 0.0005611060933680249 0.0 -4.6100417017596835e-05 0.0005600290842201252 0.0 -4.920724934910679e-05 0.000563228415211466 0.0 -4.8209211496946244e-05 0.0005620255211023834 0.0 -4.904717533473895e-05 0.0005654111950807387 0.0 -4.717687924755438e-05 0.0005660183389629298 0.0 -5.1595416809800714e-05 0.0005665725195562795 0.0 -4.566366741325352e-05 0.0005678037050956681 0.0 -5.151005809960362e-05 0.0005686936554125272 0.0 -4.877329289741767e-05 0.0005690011504865507 0.0 -5.278100807649312e-05 0.0005703818993448107 0.0 -5.678831025098111e-05 0.0005659003002244005 0.0 -5.21721162473729e-05 0.000569512630031976 0.0 -4.595951384324729e-05 0.0005635015476058095 0.0 -4.6748404766365465e-05 0.0005661488049501232 0.0 -4.631761581249134e-05 0.0005653832563146825 0.0 -4.674460357563591e-05 0.0005698866713806473 0.0 -4.572179058713857e-05 0.0005688818773889507 0.0 -4.6025542219912816e-05 0.0005690778164938084 0.0 -4.971614093690762e-05 0.0005687834513461007 0.0 -5.1180845500814504e-05 0.0005731291353261599 0.0 -5.032991233750787e-05 0.0005674108049417936 0.0 -4.905049321400523e-05 0.0005691802358900367 0.0 -4.692477302621824e-05 0.0005697020082960957 0.0 -4.604648729918737e-05 0.0005741989961835107 0.0 -4.990493380654958e-05 0.0005744836376612757 0.0 -4.370127480197077e-05 0.0005753919509767175 0.0 -4.5207682128202484e-05 0.0005737123500367214 0.0 -4.553432154906531e-05 0.000577303377731004 0.0 -4.525263706709187e-05 0.0005751798994526203 0.0 -4.8227744618353905e-05 0.0005748812325756036 0.0 -4.62690873178273e-05 0.000575256167234517 0.0 -4.625508155833934e-05 0.0005746574006393869 0.0 -4.9160895996885705e-05 0.0005752165468198779 0.0 -5.023624043293598e-05 0.0005766236124654372 0.0 -4.713020322913546e-05 0.0005743314654963999 0.0 -4.8646082086482896e-05 0.0005728209292627893 0.0 -4.414485689094997e-05 0.0005704712320687189 0.0 -4.87384743516795e-05 0.0005710417050937607 0.0 -4.107708635401145e-05 0.0005870409092224279 0.0 -4.458815615801138e-05 0.0005873729184494435 0.0 -4.2577547559256904e-05 0.0005872336732885673 0.0 -4.3605132925834816e-05 0.0005900111868356462 0.0 -4.458037673749301e-05 0.0005875889887742253 0.0 -4.622310443918192e-05 0.0005871219680828714 0.0 -4.9386647194591563e-05 0.0005871277350490402 0.0 -4.323904044687077e-05 0.0005788816401841774 0.0 -4.5582187699560117e-05 0.0005806750424480769 0.0 -4.629184998394362e-05 0.0005800984996892945 0.0 -4.2965787175893804e-05 0.0005732750759193655 0.0 -3.978872976480525e-05 0.000575874958776995 0.0 -3.9325438593815014e-05 0.0005691591013178495 0.0 -4.019918369794311e-05 0.0005969119656510968 0.0 -3.973151445676126e-05 0.0005990947784844677 0.0 -4.096928094088301e-05 0.0006008682214172956 0.0 -4.322415769699736e-05 0.0006008641821476946 0.0 -4.4159345714910585e-05 0.0005993452956688326 0.0 -4.5762560015822005e-05 0.0006012606215042064 0.0 -4.475694920199268e-05 0.0005977594214571787 0.0 -4.479527674313509e-05 0.0005935905621336621 0.0 -4.7386023745444714e-05 0.0005919248071717883 0.0 -4.510984956297628e-05 0.0005862179653533733 0.0 -4.96986163096081e-05 0.000587027170437571 0.0 -3.9732065809232784e-05 0.0005742197331318386 0.0 -4.4921825153980225e-05 0.000580515618876853 0.0 -3.6966704460447236e-05 0.0006046673619641833 0.0 -3.814121119035576e-05 0.0006095283128837308 0.0 -3.971745717364697e-05 0.0006115323248530036 0.0 -4.166220237099826e-05 0.0006148670536777137 0.0 -4.189422493164952e-05 0.0006156360358966404 0.0 -4.069058725565071e-05 0.0006145403659984752 0.0 -4.225028911162586e-05 0.0006106431836330696 0.0 -4.539738004247619e-05 0.0006094057220754461 0.0 -4.476751446179951e-05 0.0006046735809513093 0.0 -3.721984388799496e-05 0.0006002289502970112 0.0 -3.95025091210889e-05 0.0005912183580682839 0.0 -4.2425834474328546e-05 0.0005871775447302014 0.0 -3.1519689229848745e-05 0.0005708829163291118 0.0 -3.299800708928656e-05 0.0005973171801567457 0.0 -2.2657739521553993e-05 0.0005988380257962108 0.0 -1.6403542383105577e-05 0.0006134471925848648 0.0 -1.6383904188997013e-05 0.0006169351222104904 0.0 -1.2108601672008038e-05 0.0006283371701748435 0.0 -7.258144827585236e-06 0.0006427562019840681 0.0 -1.6646399368562796e-05 0.0006707958098696181 0.0 -1.0291462964095727e-05 0.0006870987449796223 0.0 -5.26888679159561e-06 0.0006997108933927703 0.0 -1.7613752433954087e-05 0.0007099983573332994 0.0 -3.071437167276122e-05 0.0006017641934458239 0.0 -3.066614009688972e-05 0.0006163421416223505 0.0 -1.7734202838166585e-05 0.0006226214236194438 0.0 -2.84485886496015e-05 0.0006422690733971675 0.0 -1.1531332277466208e-05 0.0006603768239732731 0.0 -1.9419588842747713e-05 0.0006720485382469881 0.0 -9.19387563958322e-06 0.0006771089447918985 0.0 -7.836480183372171e-06 0.0006839151262631001 0.0 -1.2931134148158599e-05 0.0007025761467231963 0.0 -1.29353755